Generated Pectin Chain
   30
    1PCT     PR    1   2.000  46.994  46.994
    1PCT     PN    2   5.103  46.994  46.994
    1PCT     PN    3   8.206  46.994  46.994
    1PCT     PN    4  11.309  46.994  46.994
    1PCT     PN    5  14.412  46.994  46.994
    1PCT     PC    6  17.515  46.994  46.994
    1PCT     PN    7  20.618  46.994  46.994
    1PCT     PN    8  23.721  46.994  46.994
    1PCT     PN    9  26.824  46.994  46.994
    1PCT     PN   10  29.927  46.994  46.994
    1PCT     PN   11  33.030  46.994  46.994
    1PCT     PN   12  36.133  46.994  46.994
    1PCT     PN   13  39.236  46.994  46.994
    1PCT     PR   14  42.339  46.994  46.994
    1PCT     PN   15  45.442  46.994  46.994
    1PCT     PN   16  48.545  46.994  46.994
    1PCT     PN   17  51.648  46.994  46.994
    1PCT     PN   18  54.751  46.994  46.994
    1PCT     PN   19  57.854  46.994  46.994
    1PCT     PN   20  60.957  46.994  46.994
    1PCT     PN   21  64.060  46.994  46.994
    1PCT     PN   22  67.163  46.994  46.994
    1PCT     PN   23  70.266  46.994  46.994
    1PCT     PN   24  73.369  46.994  46.994
    1PCT     PN   25  76.472  46.994  46.994
    1PCT     PC   26  79.575  46.994  46.994
    1PCT     PN   27  82.678  46.994  46.994
    1PCT     PN   28  85.781  46.994  46.994
    1PCT     PN   29  88.884  46.994  46.994
    1PCT     PN   30  91.987  46.994  46.994
  93.98700  93.98700  93.98700
