;;;;; Sudowoodo Force Field: Particle definition and LJ interactions
;;;;;
;;;;; File generated by build_sweep.py
;;;;;
;;;;; Version: 0.0.1
;;;;;

[ defaults ]
1 2 ; sigma-epsilon format of LJ parameters


[ atomtypes ]
; name  at.num  mass  charge  ptype  sigma  epsilon
C            1   100.0 0.000 A  0.000000    0.000000
X            1    50.0 0.000 A  0.000000    0.000000
P            1    26.6 0.000 A  0.000000    0.000000
PctRep01         1   26.6 0.000 A   0.000000    0.000000
PctRep02         1   26.6 0.000 A   0.000000    0.000000
PctRep03         1   26.6 0.000 A   0.000000    0.000000
PctRep04         1   26.6 0.000 A   0.000000    0.000000
PctRep05         1   26.6 0.000 A   0.000000    0.000000
PctRep06         1   26.6 0.000 A   0.000000    0.000000
PctRep07         1   26.6 0.000 A   0.000000    0.000000
PctRep08         1   26.6 0.000 A   0.000000    0.000000
PctRep09         1   26.6 0.000 A   0.000000    0.000000
PctRep10         1   26.6 0.000 A   0.000000    0.000000
PctRep11         1   26.6 0.000 A   0.000000    0.000000
PctRep12         1   26.6 0.000 A   0.000000    0.000000
PctRep13         1   26.6 0.000 A   0.000000    0.000000
PctRep14         1   26.6 0.000 A   0.000000    0.000000
PctRep15         1   26.6 0.000 A   0.000000    0.000000
PctRep16         1   26.6 0.000 A   0.000000    0.000000
PctRep17         1   26.6 0.000 A   0.000000    0.000000
PctRep18         1   26.6 0.000 A   0.000000    0.000000
PctRep19         1   26.6 0.000 A   0.000000    0.000000
PctRep20         1   26.6 0.000 A   0.000000    0.000000
PctNeu01         1   26.6 0.000 A   0.000000    0.000000
PctNeu02         1   26.6 0.000 A   0.000000    0.000000
PctNeu03         1   26.6 0.000 A   0.000000    0.000000
PctNeu04         1   26.6 0.000 A   0.000000    0.000000
PctNeu05         1   26.6 0.000 A   0.000000    0.000000
PctNeu06         1   26.6 0.000 A   0.000000    0.000000
PctNeu07         1   26.6 0.000 A   0.000000    0.000000
PctNeu08         1   26.6 0.000 A   0.000000    0.000000
PctNeu09         1   26.6 0.000 A   0.000000    0.000000
PctNeu10         1   26.6 0.000 A   0.000000    0.000000
PctNeu11         1   26.6 0.000 A   0.000000    0.000000
PctNeu12         1   26.6 0.000 A   0.000000    0.000000
PctNeu13         1   26.6 0.000 A   0.000000    0.000000
PctNeu14         1   26.6 0.000 A   0.000000    0.000000
PctNeu15         1   26.6 0.000 A   0.000000    0.000000
PctNeu16         1   26.6 0.000 A   0.000000    0.000000
PctNeu17         1   26.6 0.000 A   0.000000    0.000000
PctNeu18         1   26.6 0.000 A   0.000000    0.000000
PctNeu19         1   26.6 0.000 A   0.000000    0.000000
PctNeu20         1   26.6 0.000 A   0.000000    0.000000
PctXlk01         1   26.6 0.000 A   0.000000    0.000000
PctXlk02         1   26.6 0.000 A   0.000000    0.000000
PctXlk03         1   26.6 0.000 A   0.000000    0.000000
PctXlk04         1   26.6 0.000 A   0.000000    0.000000
PctXlk05         1   26.6 0.000 A   0.000000    0.000000
PctXlk06         1   26.6 0.000 A   0.000000    0.000000
PctXlk07         1   26.6 0.000 A   0.000000    0.000000
PctXlk08         1   26.6 0.000 A   0.000000    0.000000
PctXlk09         1   26.6 0.000 A   0.000000    0.000000
PctXlk10         1   26.6 0.000 A   0.000000    0.000000
PctXlk11         1   26.6 0.000 A   0.000000    0.000000

[ nonbond_params ]
;   i     j  func  sigma(nm)   epsilon(kJ/mol)
           C            C   1     2.673000     1.000000
           C            X   1     2.087000     1.000000
           C            P   1     1.837000     1.000000
           X            X   1     1.500000     1.000000
           X            P   1     1.250000     1.000000
           P            P   1     1.000000     1.000000
           C         PctRep01   1     1.837000     2.500000
           C         PctRep02   1     1.837000     2.500000
           C         PctRep03   1     1.837000     2.500000
           C         PctRep04   1     1.837000     2.500000
           C         PctRep05   1     1.837000     2.500000
           C         PctRep06   1     1.837000     2.500000
           C         PctRep07   1     1.837000     2.500000
           C         PctRep08   1     1.837000     2.500000
           C         PctRep09   1     1.837000     2.500000
           C         PctRep10   1     1.837000     2.500000
           C         PctRep11   1     1.837000     2.500000
           C         PctRep12   1     1.837000     2.500000
           C         PctRep13   1     1.837000     2.500000
           C         PctRep14   1     1.837000     2.500000
           C         PctRep15   1     1.837000     2.500000
           C         PctRep16   1     1.837000     2.500000
           C         PctRep17   1     1.837000     2.500000
           C         PctRep18   1     1.837000     2.500000
           C         PctRep19   1     1.837000     2.500000
           C         PctRep20   1     1.837000     2.500000
           C         PctNeu01   1     1.837000     2.500000
           C         PctNeu02   1     1.837000     2.500000
           C         PctNeu03   1     1.837000     2.500000
           C         PctNeu04   1     1.837000     2.500000
           C         PctNeu05   1     1.837000     2.500000
           C         PctNeu06   1     1.837000     2.500000
           C         PctNeu07   1     1.837000     2.500000
           C         PctNeu08   1     1.837000     2.500000
           C         PctNeu09   1     1.837000     2.500000
           C         PctNeu10   1     1.837000     2.500000
           C         PctNeu11   1     1.837000     2.500000
           C         PctNeu12   1     1.837000     2.500000
           C         PctNeu13   1     1.837000     2.500000
           C         PctNeu14   1     1.837000     2.500000
           C         PctNeu15   1     1.837000     2.500000
           C         PctNeu16   1     1.837000     2.500000
           C         PctNeu17   1     1.837000     2.500000
           C         PctNeu18   1     1.837000     2.500000
           C         PctNeu19   1     1.837000     2.500000
           C         PctNeu20   1     1.837000     2.500000
           C         PctXlk01   1     1.837000     2.500000
           C         PctXlk02   1     1.837000     2.500000
           C         PctXlk03   1     1.837000     2.500000
           C         PctXlk04   1     1.837000     2.500000
           C         PctXlk05   1     1.837000     2.500000
           C         PctXlk06   1     1.837000     2.500000
           C         PctXlk07   1     1.837000     2.500000
           C         PctXlk08   1     1.837000     2.500000
           C         PctXlk09   1     1.837000     2.500000
           C         PctXlk10   1     1.837000     2.500000
           C         PctXlk11   1     1.837000     2.500000
           X         PctRep01   1     1.250000     1.000000
           X         PctRep02   1     1.250000     1.000000
           X         PctRep03   1     1.250000     1.000000
           X         PctRep04   1     1.250000     1.000000
           X         PctRep05   1     1.250000     1.000000
           X         PctRep06   1     1.250000     1.000000
           X         PctRep07   1     1.250000     1.000000
           X         PctRep08   1     1.250000     1.000000
           X         PctRep09   1     1.250000     1.000000
           X         PctRep10   1     1.250000     1.000000
           X         PctRep11   1     1.250000     1.000000
           X         PctRep12   1     1.250000     1.000000
           X         PctRep13   1     1.250000     1.000000
           X         PctRep14   1     1.250000     1.000000
           X         PctRep15   1     1.250000     1.000000
           X         PctRep16   1     1.250000     1.000000
           X         PctRep17   1     1.250000     1.000000
           X         PctRep18   1     1.250000     1.000000
           X         PctRep19   1     1.250000     1.000000
           X         PctRep20   1     1.250000     1.000000
           X         PctNeu01   1     1.250000     1.000000
           X         PctNeu02   1     1.250000     1.000000
           X         PctNeu03   1     1.250000     1.000000
           X         PctNeu04   1     1.250000     1.000000
           X         PctNeu05   1     1.250000     1.000000
           X         PctNeu06   1     1.250000     1.000000
           X         PctNeu07   1     1.250000     1.000000
           X         PctNeu08   1     1.250000     1.000000
           X         PctNeu09   1     1.250000     1.000000
           X         PctNeu10   1     1.250000     1.000000
           X         PctNeu11   1     1.250000     1.000000
           X         PctNeu12   1     1.250000     1.000000
           X         PctNeu13   1     1.250000     1.000000
           X         PctNeu14   1     1.250000     1.000000
           X         PctNeu15   1     1.250000     1.000000
           X         PctNeu16   1     1.250000     1.000000
           X         PctNeu17   1     1.250000     1.000000
           X         PctNeu18   1     1.250000     1.000000
           X         PctNeu19   1     1.250000     1.000000
           X         PctNeu20   1     1.250000     1.000000
           X         PctXlk01   1     1.250000     1.000000
           X         PctXlk02   1     1.250000     1.000000
           X         PctXlk03   1     1.250000     1.000000
           X         PctXlk04   1     1.250000     1.000000
           X         PctXlk05   1     1.250000     1.000000
           X         PctXlk06   1     1.250000     1.000000
           X         PctXlk07   1     1.250000     1.000000
           X         PctXlk08   1     1.250000     1.000000
           X         PctXlk09   1     1.250000     1.000000
           X         PctXlk10   1     1.250000     1.000000
           X         PctXlk11   1     1.250000     1.000000
           P         PctRep01   1     1.000000     1.000000
           P         PctRep02   1     1.000000     1.000000
           P         PctRep03   1     1.000000     1.000000
           P         PctRep04   1     1.000000     1.000000
           P         PctRep05   1     1.000000     1.000000
           P         PctRep06   1     1.000000     1.000000
           P         PctRep07   1     1.000000     1.000000
           P         PctRep08   1     1.000000     1.000000
           P         PctRep09   1     1.000000     1.000000
           P         PctRep10   1     1.000000     1.000000
           P         PctRep11   1     1.000000     1.000000
           P         PctRep12   1     1.000000     1.000000
           P         PctRep13   1     1.000000     1.000000
           P         PctRep14   1     1.000000     1.000000
           P         PctRep15   1     1.000000     1.000000
           P         PctRep16   1     1.000000     1.000000
           P         PctRep17   1     1.000000     1.000000
           P         PctRep18   1     1.000000     1.000000
           P         PctRep19   1     1.000000     1.000000
           P         PctRep20   1     1.000000     1.000000
           P         PctNeu01   1     1.000000     1.000000
           P         PctNeu02   1     1.000000     1.000000
           P         PctNeu03   1     1.000000     1.000000
           P         PctNeu04   1     1.000000     1.000000
           P         PctNeu05   1     1.000000     1.000000
           P         PctNeu06   1     1.000000     1.000000
           P         PctNeu07   1     1.000000     1.000000
           P         PctNeu08   1     1.000000     1.000000
           P         PctNeu09   1     1.000000     1.000000
           P         PctNeu10   1     1.000000     1.000000
           P         PctNeu11   1     1.000000     1.000000
           P         PctNeu12   1     1.000000     1.000000
           P         PctNeu13   1     1.000000     1.000000
           P         PctNeu14   1     1.000000     1.000000
           P         PctNeu15   1     1.000000     1.000000
           P         PctNeu16   1     1.000000     1.000000
           P         PctNeu17   1     1.000000     1.000000
           P         PctNeu18   1     1.000000     1.000000
           P         PctNeu19   1     1.000000     1.000000
           P         PctNeu20   1     1.000000     1.000000
           P         PctXlk01   1     1.000000     1.000000
           P         PctXlk02   1     1.000000     1.000000
           P         PctXlk03   1     1.000000     1.000000
           P         PctXlk04   1     1.000000     1.000000
           P         PctXlk05   1     1.000000     1.000000
           P         PctXlk06   1     1.000000     1.000000
           P         PctXlk07   1     1.000000     1.000000
           P         PctXlk08   1     1.000000     1.000000
           P         PctXlk09   1     1.000000     1.000000
           P         PctXlk10   1     1.000000     1.000000
           P         PctXlk11   1     1.000000     1.000000
        PctRep01         PctRep01   1     1.000000     0.100000
        PctRep01         PctRep02   1     1.000000     0.200000
        PctRep01         PctRep03   1     1.000000     0.300000
        PctRep01         PctRep04   1     1.000000     0.400000
        PctRep01         PctRep05   1     1.000000     0.500000
        PctRep01         PctRep06   1     1.000000     0.600000
        PctRep01         PctRep07   1     1.000000     0.700000
        PctRep01         PctRep08   1     1.000000     0.800000
        PctRep01         PctRep09   1     1.000000     0.900000
        PctRep01         PctRep10   1     1.000000     1.000000
        PctRep01         PctRep11   1     1.000000     1.100000
        PctRep01         PctRep12   1     1.000000     1.200000
        PctRep01         PctRep13   1     1.000000     1.300000
        PctRep01         PctRep14   1     1.000000     1.400000
        PctRep01         PctRep15   1     1.000000     1.500000
        PctRep01         PctRep16   1     1.000000     1.600000
        PctRep01         PctRep17   1     1.000000     1.700000
        PctRep01         PctRep18   1     1.000000     1.800000
        PctRep01         PctRep19   1     1.000000     1.900000
        PctRep01         PctRep20   1     1.000000     2.000000
        PctRep01         PctNeu01   1     1.000000     0.100000
        PctRep01         PctNeu02   1     1.000000     0.150000
        PctRep01         PctNeu03   1     1.000000     0.200000
        PctRep01         PctNeu04   1     1.000000     0.250000
        PctRep01         PctNeu05   1     1.000000     0.300000
        PctRep01         PctNeu06   1     1.000000     0.350000
        PctRep01         PctNeu07   1     1.000000     0.400000
        PctRep01         PctNeu08   1     1.000000     0.450000
        PctRep01         PctNeu09   1     1.000000     0.500000
        PctRep01         PctNeu10   1     1.000000     0.550000
        PctRep01         PctNeu11   1     1.000000     0.600000
        PctRep01         PctNeu12   1     1.000000     0.650000
        PctRep01         PctNeu13   1     1.000000     0.700000
        PctRep01         PctNeu14   1     1.000000     0.750000
        PctRep01         PctNeu15   1     1.000000     0.800000
        PctRep01         PctNeu16   1     1.000000     0.850000
        PctRep01         PctNeu17   1     1.000000     0.900000
        PctRep01         PctNeu18   1     1.000000     0.950000
        PctRep01         PctNeu19   1     1.000000     1.000000
        PctRep01         PctNeu20   1     1.000000     1.050000
        PctRep01         PctXlk01   1     1.000000     2.050000
        PctRep01         PctXlk02   1     1.000000     2.100000
        PctRep01         PctXlk03   1     1.000000     2.150000
        PctRep01         PctXlk04   1     1.000000     2.200000
        PctRep01         PctXlk05   1     1.000000     2.250000
        PctRep01         PctXlk06   1     1.000000     2.300000
        PctRep01         PctXlk07   1     1.000000     2.350000
        PctRep01         PctXlk08   1     1.000000     2.400000
        PctRep01         PctXlk09   1     1.000000     2.450000
        PctRep01         PctXlk10   1     1.000000     2.500000
        PctRep01         PctXlk11   1     1.000000     2.550000
        PctRep02         PctRep02   1     1.000000     0.200000
        PctRep02         PctRep03   1     1.000000     0.300000
        PctRep02         PctRep04   1     1.000000     0.400000
        PctRep02         PctRep05   1     1.000000     0.500000
        PctRep02         PctRep06   1     1.000000     0.600000
        PctRep02         PctRep07   1     1.000000     0.700000
        PctRep02         PctRep08   1     1.000000     0.800000
        PctRep02         PctRep09   1     1.000000     0.900000
        PctRep02         PctRep10   1     1.000000     1.000000
        PctRep02         PctRep11   1     1.000000     1.100000
        PctRep02         PctRep12   1     1.000000     1.200000
        PctRep02         PctRep13   1     1.000000     1.300000
        PctRep02         PctRep14   1     1.000000     1.400000
        PctRep02         PctRep15   1     1.000000     1.500000
        PctRep02         PctRep16   1     1.000000     1.600000
        PctRep02         PctRep17   1     1.000000     1.700000
        PctRep02         PctRep18   1     1.000000     1.800000
        PctRep02         PctRep19   1     1.000000     1.900000
        PctRep02         PctRep20   1     1.000000     2.000000
        PctRep02         PctNeu01   1     1.000000     0.150000
        PctRep02         PctNeu02   1     1.000000     0.200000
        PctRep02         PctNeu03   1     1.000000     0.250000
        PctRep02         PctNeu04   1     1.000000     0.300000
        PctRep02         PctNeu05   1     1.000000     0.350000
        PctRep02         PctNeu06   1     1.000000     0.400000
        PctRep02         PctNeu07   1     1.000000     0.450000
        PctRep02         PctNeu08   1     1.000000     0.500000
        PctRep02         PctNeu09   1     1.000000     0.550000
        PctRep02         PctNeu10   1     1.000000     0.600000
        PctRep02         PctNeu11   1     1.000000     0.650000
        PctRep02         PctNeu12   1     1.000000     0.700000
        PctRep02         PctNeu13   1     1.000000     0.750000
        PctRep02         PctNeu14   1     1.000000     0.800000
        PctRep02         PctNeu15   1     1.000000     0.850000
        PctRep02         PctNeu16   1     1.000000     0.900000
        PctRep02         PctNeu17   1     1.000000     0.950000
        PctRep02         PctNeu18   1     1.000000     1.000000
        PctRep02         PctNeu19   1     1.000000     1.050000
        PctRep02         PctNeu20   1     1.000000     1.100000
        PctRep02         PctXlk01   1     1.000000     2.100000
        PctRep02         PctXlk02   1     1.000000     2.150000
        PctRep02         PctXlk03   1     1.000000     2.200000
        PctRep02         PctXlk04   1     1.000000     2.250000
        PctRep02         PctXlk05   1     1.000000     2.300000
        PctRep02         PctXlk06   1     1.000000     2.350000
        PctRep02         PctXlk07   1     1.000000     2.400000
        PctRep02         PctXlk08   1     1.000000     2.450000
        PctRep02         PctXlk09   1     1.000000     2.500000
        PctRep02         PctXlk10   1     1.000000     2.550000
        PctRep02         PctXlk11   1     1.000000     2.600000
        PctRep03         PctRep03   1     1.000000     0.300000
        PctRep03         PctRep04   1     1.000000     0.400000
        PctRep03         PctRep05   1     1.000000     0.500000
        PctRep03         PctRep06   1     1.000000     0.600000
        PctRep03         PctRep07   1     1.000000     0.700000
        PctRep03         PctRep08   1     1.000000     0.800000
        PctRep03         PctRep09   1     1.000000     0.900000
        PctRep03         PctRep10   1     1.000000     1.000000
        PctRep03         PctRep11   1     1.000000     1.100000
        PctRep03         PctRep12   1     1.000000     1.200000
        PctRep03         PctRep13   1     1.000000     1.300000
        PctRep03         PctRep14   1     1.000000     1.400000
        PctRep03         PctRep15   1     1.000000     1.500000
        PctRep03         PctRep16   1     1.000000     1.600000
        PctRep03         PctRep17   1     1.000000     1.700000
        PctRep03         PctRep18   1     1.000000     1.800000
        PctRep03         PctRep19   1     1.000000     1.900000
        PctRep03         PctRep20   1     1.000000     2.000000
        PctRep03         PctNeu01   1     1.000000     0.200000
        PctRep03         PctNeu02   1     1.000000     0.250000
        PctRep03         PctNeu03   1     1.000000     0.300000
        PctRep03         PctNeu04   1     1.000000     0.350000
        PctRep03         PctNeu05   1     1.000000     0.400000
        PctRep03         PctNeu06   1     1.000000     0.450000
        PctRep03         PctNeu07   1     1.000000     0.500000
        PctRep03         PctNeu08   1     1.000000     0.550000
        PctRep03         PctNeu09   1     1.000000     0.600000
        PctRep03         PctNeu10   1     1.000000     0.650000
        PctRep03         PctNeu11   1     1.000000     0.700000
        PctRep03         PctNeu12   1     1.000000     0.750000
        PctRep03         PctNeu13   1     1.000000     0.800000
        PctRep03         PctNeu14   1     1.000000     0.850000
        PctRep03         PctNeu15   1     1.000000     0.900000
        PctRep03         PctNeu16   1     1.000000     0.950000
        PctRep03         PctNeu17   1     1.000000     1.000000
        PctRep03         PctNeu18   1     1.000000     1.050000
        PctRep03         PctNeu19   1     1.000000     1.100000
        PctRep03         PctNeu20   1     1.000000     1.150000
        PctRep03         PctXlk01   1     1.000000     2.150000
        PctRep03         PctXlk02   1     1.000000     2.200000
        PctRep03         PctXlk03   1     1.000000     2.250000
        PctRep03         PctXlk04   1     1.000000     2.300000
        PctRep03         PctXlk05   1     1.000000     2.350000
        PctRep03         PctXlk06   1     1.000000     2.400000
        PctRep03         PctXlk07   1     1.000000     2.450000
        PctRep03         PctXlk08   1     1.000000     2.500000
        PctRep03         PctXlk09   1     1.000000     2.550000
        PctRep03         PctXlk10   1     1.000000     2.600000
        PctRep03         PctXlk11   1     1.000000     2.650000
        PctRep04         PctRep04   1     1.000000     0.400000
        PctRep04         PctRep05   1     1.000000     0.500000
        PctRep04         PctRep06   1     1.000000     0.600000
        PctRep04         PctRep07   1     1.000000     0.700000
        PctRep04         PctRep08   1     1.000000     0.800000
        PctRep04         PctRep09   1     1.000000     0.900000
        PctRep04         PctRep10   1     1.000000     1.000000
        PctRep04         PctRep11   1     1.000000     1.100000
        PctRep04         PctRep12   1     1.000000     1.200000
        PctRep04         PctRep13   1     1.000000     1.300000
        PctRep04         PctRep14   1     1.000000     1.400000
        PctRep04         PctRep15   1     1.000000     1.500000
        PctRep04         PctRep16   1     1.000000     1.600000
        PctRep04         PctRep17   1     1.000000     1.700000
        PctRep04         PctRep18   1     1.000000     1.800000
        PctRep04         PctRep19   1     1.000000     1.900000
        PctRep04         PctRep20   1     1.000000     2.000000
        PctRep04         PctNeu01   1     1.000000     0.250000
        PctRep04         PctNeu02   1     1.000000     0.300000
        PctRep04         PctNeu03   1     1.000000     0.350000
        PctRep04         PctNeu04   1     1.000000     0.400000
        PctRep04         PctNeu05   1     1.000000     0.450000
        PctRep04         PctNeu06   1     1.000000     0.500000
        PctRep04         PctNeu07   1     1.000000     0.550000
        PctRep04         PctNeu08   1     1.000000     0.600000
        PctRep04         PctNeu09   1     1.000000     0.650000
        PctRep04         PctNeu10   1     1.000000     0.700000
        PctRep04         PctNeu11   1     1.000000     0.750000
        PctRep04         PctNeu12   1     1.000000     0.800000
        PctRep04         PctNeu13   1     1.000000     0.850000
        PctRep04         PctNeu14   1     1.000000     0.900000
        PctRep04         PctNeu15   1     1.000000     0.950000
        PctRep04         PctNeu16   1     1.000000     1.000000
        PctRep04         PctNeu17   1     1.000000     1.050000
        PctRep04         PctNeu18   1     1.000000     1.100000
        PctRep04         PctNeu19   1     1.000000     1.150000
        PctRep04         PctNeu20   1     1.000000     1.200000
        PctRep04         PctXlk01   1     1.000000     2.200000
        PctRep04         PctXlk02   1     1.000000     2.250000
        PctRep04         PctXlk03   1     1.000000     2.300000
        PctRep04         PctXlk04   1     1.000000     2.350000
        PctRep04         PctXlk05   1     1.000000     2.400000
        PctRep04         PctXlk06   1     1.000000     2.450000
        PctRep04         PctXlk07   1     1.000000     2.500000
        PctRep04         PctXlk08   1     1.000000     2.550000
        PctRep04         PctXlk09   1     1.000000     2.600000
        PctRep04         PctXlk10   1     1.000000     2.650000
        PctRep04         PctXlk11   1     1.000000     2.700000
        PctRep05         PctRep05   1     1.000000     0.500000
        PctRep05         PctRep06   1     1.000000     0.600000
        PctRep05         PctRep07   1     1.000000     0.700000
        PctRep05         PctRep08   1     1.000000     0.800000
        PctRep05         PctRep09   1     1.000000     0.900000
        PctRep05         PctRep10   1     1.000000     1.000000
        PctRep05         PctRep11   1     1.000000     1.100000
        PctRep05         PctRep12   1     1.000000     1.200000
        PctRep05         PctRep13   1     1.000000     1.300000
        PctRep05         PctRep14   1     1.000000     1.400000
        PctRep05         PctRep15   1     1.000000     1.500000
        PctRep05         PctRep16   1     1.000000     1.600000
        PctRep05         PctRep17   1     1.000000     1.700000
        PctRep05         PctRep18   1     1.000000     1.800000
        PctRep05         PctRep19   1     1.000000     1.900000
        PctRep05         PctRep20   1     1.000000     2.000000
        PctRep05         PctNeu01   1     1.000000     0.300000
        PctRep05         PctNeu02   1     1.000000     0.350000
        PctRep05         PctNeu03   1     1.000000     0.400000
        PctRep05         PctNeu04   1     1.000000     0.450000
        PctRep05         PctNeu05   1     1.000000     0.500000
        PctRep05         PctNeu06   1     1.000000     0.550000
        PctRep05         PctNeu07   1     1.000000     0.600000
        PctRep05         PctNeu08   1     1.000000     0.650000
        PctRep05         PctNeu09   1     1.000000     0.700000
        PctRep05         PctNeu10   1     1.000000     0.750000
        PctRep05         PctNeu11   1     1.000000     0.800000
        PctRep05         PctNeu12   1     1.000000     0.850000
        PctRep05         PctNeu13   1     1.000000     0.900000
        PctRep05         PctNeu14   1     1.000000     0.950000
        PctRep05         PctNeu15   1     1.000000     1.000000
        PctRep05         PctNeu16   1     1.000000     1.050000
        PctRep05         PctNeu17   1     1.000000     1.100000
        PctRep05         PctNeu18   1     1.000000     1.150000
        PctRep05         PctNeu19   1     1.000000     1.200000
        PctRep05         PctNeu20   1     1.000000     1.250000
        PctRep05         PctXlk01   1     1.000000     2.250000
        PctRep05         PctXlk02   1     1.000000     2.300000
        PctRep05         PctXlk03   1     1.000000     2.350000
        PctRep05         PctXlk04   1     1.000000     2.400000
        PctRep05         PctXlk05   1     1.000000     2.450000
        PctRep05         PctXlk06   1     1.000000     2.500000
        PctRep05         PctXlk07   1     1.000000     2.550000
        PctRep05         PctXlk08   1     1.000000     2.600000
        PctRep05         PctXlk09   1     1.000000     2.650000
        PctRep05         PctXlk10   1     1.000000     2.700000
        PctRep05         PctXlk11   1     1.000000     2.750000
        PctRep06         PctRep06   1     1.000000     0.600000
        PctRep06         PctRep07   1     1.000000     0.700000
        PctRep06         PctRep08   1     1.000000     0.800000
        PctRep06         PctRep09   1     1.000000     0.900000
        PctRep06         PctRep10   1     1.000000     1.000000
        PctRep06         PctRep11   1     1.000000     1.100000
        PctRep06         PctRep12   1     1.000000     1.200000
        PctRep06         PctRep13   1     1.000000     1.300000
        PctRep06         PctRep14   1     1.000000     1.400000
        PctRep06         PctRep15   1     1.000000     1.500000
        PctRep06         PctRep16   1     1.000000     1.600000
        PctRep06         PctRep17   1     1.000000     1.700000
        PctRep06         PctRep18   1     1.000000     1.800000
        PctRep06         PctRep19   1     1.000000     1.900000
        PctRep06         PctRep20   1     1.000000     2.000000
        PctRep06         PctNeu01   1     1.000000     0.350000
        PctRep06         PctNeu02   1     1.000000     0.400000
        PctRep06         PctNeu03   1     1.000000     0.450000
        PctRep06         PctNeu04   1     1.000000     0.500000
        PctRep06         PctNeu05   1     1.000000     0.550000
        PctRep06         PctNeu06   1     1.000000     0.600000
        PctRep06         PctNeu07   1     1.000000     0.650000
        PctRep06         PctNeu08   1     1.000000     0.700000
        PctRep06         PctNeu09   1     1.000000     0.750000
        PctRep06         PctNeu10   1     1.000000     0.800000
        PctRep06         PctNeu11   1     1.000000     0.850000
        PctRep06         PctNeu12   1     1.000000     0.900000
        PctRep06         PctNeu13   1     1.000000     0.950000
        PctRep06         PctNeu14   1     1.000000     1.000000
        PctRep06         PctNeu15   1     1.000000     1.050000
        PctRep06         PctNeu16   1     1.000000     1.100000
        PctRep06         PctNeu17   1     1.000000     1.150000
        PctRep06         PctNeu18   1     1.000000     1.200000
        PctRep06         PctNeu19   1     1.000000     1.250000
        PctRep06         PctNeu20   1     1.000000     1.300000
        PctRep06         PctXlk01   1     1.000000     2.300000
        PctRep06         PctXlk02   1     1.000000     2.350000
        PctRep06         PctXlk03   1     1.000000     2.400000
        PctRep06         PctXlk04   1     1.000000     2.450000
        PctRep06         PctXlk05   1     1.000000     2.500000
        PctRep06         PctXlk06   1     1.000000     2.550000
        PctRep06         PctXlk07   1     1.000000     2.600000
        PctRep06         PctXlk08   1     1.000000     2.650000
        PctRep06         PctXlk09   1     1.000000     2.700000
        PctRep06         PctXlk10   1     1.000000     2.750000
        PctRep06         PctXlk11   1     1.000000     2.800000
        PctRep07         PctRep07   1     1.000000     0.700000
        PctRep07         PctRep08   1     1.000000     0.800000
        PctRep07         PctRep09   1     1.000000     0.900000
        PctRep07         PctRep10   1     1.000000     1.000000
        PctRep07         PctRep11   1     1.000000     1.100000
        PctRep07         PctRep12   1     1.000000     1.200000
        PctRep07         PctRep13   1     1.000000     1.300000
        PctRep07         PctRep14   1     1.000000     1.400000
        PctRep07         PctRep15   1     1.000000     1.500000
        PctRep07         PctRep16   1     1.000000     1.600000
        PctRep07         PctRep17   1     1.000000     1.700000
        PctRep07         PctRep18   1     1.000000     1.800000
        PctRep07         PctRep19   1     1.000000     1.900000
        PctRep07         PctRep20   1     1.000000     2.000000
        PctRep07         PctNeu01   1     1.000000     0.400000
        PctRep07         PctNeu02   1     1.000000     0.450000
        PctRep07         PctNeu03   1     1.000000     0.500000
        PctRep07         PctNeu04   1     1.000000     0.550000
        PctRep07         PctNeu05   1     1.000000     0.600000
        PctRep07         PctNeu06   1     1.000000     0.650000
        PctRep07         PctNeu07   1     1.000000     0.700000
        PctRep07         PctNeu08   1     1.000000     0.750000
        PctRep07         PctNeu09   1     1.000000     0.800000
        PctRep07         PctNeu10   1     1.000000     0.850000
        PctRep07         PctNeu11   1     1.000000     0.900000
        PctRep07         PctNeu12   1     1.000000     0.950000
        PctRep07         PctNeu13   1     1.000000     1.000000
        PctRep07         PctNeu14   1     1.000000     1.050000
        PctRep07         PctNeu15   1     1.000000     1.100000
        PctRep07         PctNeu16   1     1.000000     1.150000
        PctRep07         PctNeu17   1     1.000000     1.200000
        PctRep07         PctNeu18   1     1.000000     1.250000
        PctRep07         PctNeu19   1     1.000000     1.300000
        PctRep07         PctNeu20   1     1.000000     1.350000
        PctRep07         PctXlk01   1     1.000000     2.350000
        PctRep07         PctXlk02   1     1.000000     2.400000
        PctRep07         PctXlk03   1     1.000000     2.450000
        PctRep07         PctXlk04   1     1.000000     2.500000
        PctRep07         PctXlk05   1     1.000000     2.550000
        PctRep07         PctXlk06   1     1.000000     2.600000
        PctRep07         PctXlk07   1     1.000000     2.650000
        PctRep07         PctXlk08   1     1.000000     2.700000
        PctRep07         PctXlk09   1     1.000000     2.750000
        PctRep07         PctXlk10   1     1.000000     2.800000
        PctRep07         PctXlk11   1     1.000000     2.850000
        PctRep08         PctRep08   1     1.000000     0.800000
        PctRep08         PctRep09   1     1.000000     0.900000
        PctRep08         PctRep10   1     1.000000     1.000000
        PctRep08         PctRep11   1     1.000000     1.100000
        PctRep08         PctRep12   1     1.000000     1.200000
        PctRep08         PctRep13   1     1.000000     1.300000
        PctRep08         PctRep14   1     1.000000     1.400000
        PctRep08         PctRep15   1     1.000000     1.500000
        PctRep08         PctRep16   1     1.000000     1.600000
        PctRep08         PctRep17   1     1.000000     1.700000
        PctRep08         PctRep18   1     1.000000     1.800000
        PctRep08         PctRep19   1     1.000000     1.900000
        PctRep08         PctRep20   1     1.000000     2.000000
        PctRep08         PctNeu01   1     1.000000     0.450000
        PctRep08         PctNeu02   1     1.000000     0.500000
        PctRep08         PctNeu03   1     1.000000     0.550000
        PctRep08         PctNeu04   1     1.000000     0.600000
        PctRep08         PctNeu05   1     1.000000     0.650000
        PctRep08         PctNeu06   1     1.000000     0.700000
        PctRep08         PctNeu07   1     1.000000     0.750000
        PctRep08         PctNeu08   1     1.000000     0.800000
        PctRep08         PctNeu09   1     1.000000     0.850000
        PctRep08         PctNeu10   1     1.000000     0.900000
        PctRep08         PctNeu11   1     1.000000     0.950000
        PctRep08         PctNeu12   1     1.000000     1.000000
        PctRep08         PctNeu13   1     1.000000     1.050000
        PctRep08         PctNeu14   1     1.000000     1.100000
        PctRep08         PctNeu15   1     1.000000     1.150000
        PctRep08         PctNeu16   1     1.000000     1.200000
        PctRep08         PctNeu17   1     1.000000     1.250000
        PctRep08         PctNeu18   1     1.000000     1.300000
        PctRep08         PctNeu19   1     1.000000     1.350000
        PctRep08         PctNeu20   1     1.000000     1.400000
        PctRep08         PctXlk01   1     1.000000     2.400000
        PctRep08         PctXlk02   1     1.000000     2.450000
        PctRep08         PctXlk03   1     1.000000     2.500000
        PctRep08         PctXlk04   1     1.000000     2.550000
        PctRep08         PctXlk05   1     1.000000     2.600000
        PctRep08         PctXlk06   1     1.000000     2.650000
        PctRep08         PctXlk07   1     1.000000     2.700000
        PctRep08         PctXlk08   1     1.000000     2.750000
        PctRep08         PctXlk09   1     1.000000     2.800000
        PctRep08         PctXlk10   1     1.000000     2.850000
        PctRep08         PctXlk11   1     1.000000     2.900000
        PctRep09         PctRep09   1     1.000000     0.900000
        PctRep09         PctRep10   1     1.000000     1.000000
        PctRep09         PctRep11   1     1.000000     1.100000
        PctRep09         PctRep12   1     1.000000     1.200000
        PctRep09         PctRep13   1     1.000000     1.300000
        PctRep09         PctRep14   1     1.000000     1.400000
        PctRep09         PctRep15   1     1.000000     1.500000
        PctRep09         PctRep16   1     1.000000     1.600000
        PctRep09         PctRep17   1     1.000000     1.700000
        PctRep09         PctRep18   1     1.000000     1.800000
        PctRep09         PctRep19   1     1.000000     1.900000
        PctRep09         PctRep20   1     1.000000     2.000000
        PctRep09         PctNeu01   1     1.000000     0.500000
        PctRep09         PctNeu02   1     1.000000     0.550000
        PctRep09         PctNeu03   1     1.000000     0.600000
        PctRep09         PctNeu04   1     1.000000     0.650000
        PctRep09         PctNeu05   1     1.000000     0.700000
        PctRep09         PctNeu06   1     1.000000     0.750000
        PctRep09         PctNeu07   1     1.000000     0.800000
        PctRep09         PctNeu08   1     1.000000     0.850000
        PctRep09         PctNeu09   1     1.000000     0.900000
        PctRep09         PctNeu10   1     1.000000     0.950000
        PctRep09         PctNeu11   1     1.000000     1.000000
        PctRep09         PctNeu12   1     1.000000     1.050000
        PctRep09         PctNeu13   1     1.000000     1.100000
        PctRep09         PctNeu14   1     1.000000     1.150000
        PctRep09         PctNeu15   1     1.000000     1.200000
        PctRep09         PctNeu16   1     1.000000     1.250000
        PctRep09         PctNeu17   1     1.000000     1.300000
        PctRep09         PctNeu18   1     1.000000     1.350000
        PctRep09         PctNeu19   1     1.000000     1.400000
        PctRep09         PctNeu20   1     1.000000     1.450000
        PctRep09         PctXlk01   1     1.000000     2.450000
        PctRep09         PctXlk02   1     1.000000     2.500000
        PctRep09         PctXlk03   1     1.000000     2.550000
        PctRep09         PctXlk04   1     1.000000     2.600000
        PctRep09         PctXlk05   1     1.000000     2.650000
        PctRep09         PctXlk06   1     1.000000     2.700000
        PctRep09         PctXlk07   1     1.000000     2.750000
        PctRep09         PctXlk08   1     1.000000     2.800000
        PctRep09         PctXlk09   1     1.000000     2.850000
        PctRep09         PctXlk10   1     1.000000     2.900000
        PctRep09         PctXlk11   1     1.000000     2.950000
        PctRep10         PctRep10   1     1.000000     1.000000
        PctRep10         PctRep11   1     1.000000     1.100000
        PctRep10         PctRep12   1     1.000000     1.200000
        PctRep10         PctRep13   1     1.000000     1.300000
        PctRep10         PctRep14   1     1.000000     1.400000
        PctRep10         PctRep15   1     1.000000     1.500000
        PctRep10         PctRep16   1     1.000000     1.600000
        PctRep10         PctRep17   1     1.000000     1.700000
        PctRep10         PctRep18   1     1.000000     1.800000
        PctRep10         PctRep19   1     1.000000     1.900000
        PctRep10         PctRep20   1     1.000000     2.000000
        PctRep10         PctNeu01   1     1.000000     0.550000
        PctRep10         PctNeu02   1     1.000000     0.600000
        PctRep10         PctNeu03   1     1.000000     0.650000
        PctRep10         PctNeu04   1     1.000000     0.700000
        PctRep10         PctNeu05   1     1.000000     0.750000
        PctRep10         PctNeu06   1     1.000000     0.800000
        PctRep10         PctNeu07   1     1.000000     0.850000
        PctRep10         PctNeu08   1     1.000000     0.900000
        PctRep10         PctNeu09   1     1.000000     0.950000
        PctRep10         PctNeu10   1     1.000000     1.000000
        PctRep10         PctNeu11   1     1.000000     1.050000
        PctRep10         PctNeu12   1     1.000000     1.100000
        PctRep10         PctNeu13   1     1.000000     1.150000
        PctRep10         PctNeu14   1     1.000000     1.200000
        PctRep10         PctNeu15   1     1.000000     1.250000
        PctRep10         PctNeu16   1     1.000000     1.300000
        PctRep10         PctNeu17   1     1.000000     1.350000
        PctRep10         PctNeu18   1     1.000000     1.400000
        PctRep10         PctNeu19   1     1.000000     1.450000
        PctRep10         PctNeu20   1     1.000000     1.500000
        PctRep10         PctXlk01   1     1.000000     2.500000
        PctRep10         PctXlk02   1     1.000000     2.550000
        PctRep10         PctXlk03   1     1.000000     2.600000
        PctRep10         PctXlk04   1     1.000000     2.650000
        PctRep10         PctXlk05   1     1.000000     2.700000
        PctRep10         PctXlk06   1     1.000000     2.750000
        PctRep10         PctXlk07   1     1.000000     2.800000
        PctRep10         PctXlk08   1     1.000000     2.850000
        PctRep10         PctXlk09   1     1.000000     2.900000
        PctRep10         PctXlk10   1     1.000000     2.950000
        PctRep10         PctXlk11   1     1.000000     3.000000
        PctRep11         PctRep11   1     1.000000     1.100000
        PctRep11         PctRep12   1     1.000000     1.200000
        PctRep11         PctRep13   1     1.000000     1.300000
        PctRep11         PctRep14   1     1.000000     1.400000
        PctRep11         PctRep15   1     1.000000     1.500000
        PctRep11         PctRep16   1     1.000000     1.600000
        PctRep11         PctRep17   1     1.000000     1.700000
        PctRep11         PctRep18   1     1.000000     1.800000
        PctRep11         PctRep19   1     1.000000     1.900000
        PctRep11         PctRep20   1     1.000000     2.000000
        PctRep11         PctNeu01   1     1.000000     0.600000
        PctRep11         PctNeu02   1     1.000000     0.650000
        PctRep11         PctNeu03   1     1.000000     0.700000
        PctRep11         PctNeu04   1     1.000000     0.750000
        PctRep11         PctNeu05   1     1.000000     0.800000
        PctRep11         PctNeu06   1     1.000000     0.850000
        PctRep11         PctNeu07   1     1.000000     0.900000
        PctRep11         PctNeu08   1     1.000000     0.950000
        PctRep11         PctNeu09   1     1.000000     1.000000
        PctRep11         PctNeu10   1     1.000000     1.050000
        PctRep11         PctNeu11   1     1.000000     1.100000
        PctRep11         PctNeu12   1     1.000000     1.150000
        PctRep11         PctNeu13   1     1.000000     1.200000
        PctRep11         PctNeu14   1     1.000000     1.250000
        PctRep11         PctNeu15   1     1.000000     1.300000
        PctRep11         PctNeu16   1     1.000000     1.350000
        PctRep11         PctNeu17   1     1.000000     1.400000
        PctRep11         PctNeu18   1     1.000000     1.450000
        PctRep11         PctNeu19   1     1.000000     1.500000
        PctRep11         PctNeu20   1     1.000000     1.550000
        PctRep11         PctXlk01   1     1.000000     2.550000
        PctRep11         PctXlk02   1     1.000000     2.600000
        PctRep11         PctXlk03   1     1.000000     2.650000
        PctRep11         PctXlk04   1     1.000000     2.700000
        PctRep11         PctXlk05   1     1.000000     2.750000
        PctRep11         PctXlk06   1     1.000000     2.800000
        PctRep11         PctXlk07   1     1.000000     2.850000
        PctRep11         PctXlk08   1     1.000000     2.900000
        PctRep11         PctXlk09   1     1.000000     2.950000
        PctRep11         PctXlk10   1     1.000000     3.000000
        PctRep11         PctXlk11   1     1.000000     3.050000
        PctRep12         PctRep12   1     1.000000     1.200000
        PctRep12         PctRep13   1     1.000000     1.300000
        PctRep12         PctRep14   1     1.000000     1.400000
        PctRep12         PctRep15   1     1.000000     1.500000
        PctRep12         PctRep16   1     1.000000     1.600000
        PctRep12         PctRep17   1     1.000000     1.700000
        PctRep12         PctRep18   1     1.000000     1.800000
        PctRep12         PctRep19   1     1.000000     1.900000
        PctRep12         PctRep20   1     1.000000     2.000000
        PctRep12         PctNeu01   1     1.000000     0.650000
        PctRep12         PctNeu02   1     1.000000     0.700000
        PctRep12         PctNeu03   1     1.000000     0.750000
        PctRep12         PctNeu04   1     1.000000     0.800000
        PctRep12         PctNeu05   1     1.000000     0.850000
        PctRep12         PctNeu06   1     1.000000     0.900000
        PctRep12         PctNeu07   1     1.000000     0.950000
        PctRep12         PctNeu08   1     1.000000     1.000000
        PctRep12         PctNeu09   1     1.000000     1.050000
        PctRep12         PctNeu10   1     1.000000     1.100000
        PctRep12         PctNeu11   1     1.000000     1.150000
        PctRep12         PctNeu12   1     1.000000     1.200000
        PctRep12         PctNeu13   1     1.000000     1.250000
        PctRep12         PctNeu14   1     1.000000     1.300000
        PctRep12         PctNeu15   1     1.000000     1.350000
        PctRep12         PctNeu16   1     1.000000     1.400000
        PctRep12         PctNeu17   1     1.000000     1.450000
        PctRep12         PctNeu18   1     1.000000     1.500000
        PctRep12         PctNeu19   1     1.000000     1.550000
        PctRep12         PctNeu20   1     1.000000     1.600000
        PctRep12         PctXlk01   1     1.000000     2.600000
        PctRep12         PctXlk02   1     1.000000     2.650000
        PctRep12         PctXlk03   1     1.000000     2.700000
        PctRep12         PctXlk04   1     1.000000     2.750000
        PctRep12         PctXlk05   1     1.000000     2.800000
        PctRep12         PctXlk06   1     1.000000     2.850000
        PctRep12         PctXlk07   1     1.000000     2.900000
        PctRep12         PctXlk08   1     1.000000     2.950000
        PctRep12         PctXlk09   1     1.000000     3.000000
        PctRep12         PctXlk10   1     1.000000     3.050000
        PctRep12         PctXlk11   1     1.000000     3.100000
        PctRep13         PctRep13   1     1.000000     1.300000
        PctRep13         PctRep14   1     1.000000     1.400000
        PctRep13         PctRep15   1     1.000000     1.500000
        PctRep13         PctRep16   1     1.000000     1.600000
        PctRep13         PctRep17   1     1.000000     1.700000
        PctRep13         PctRep18   1     1.000000     1.800000
        PctRep13         PctRep19   1     1.000000     1.900000
        PctRep13         PctRep20   1     1.000000     2.000000
        PctRep13         PctNeu01   1     1.000000     0.700000
        PctRep13         PctNeu02   1     1.000000     0.750000
        PctRep13         PctNeu03   1     1.000000     0.800000
        PctRep13         PctNeu04   1     1.000000     0.850000
        PctRep13         PctNeu05   1     1.000000     0.900000
        PctRep13         PctNeu06   1     1.000000     0.950000
        PctRep13         PctNeu07   1     1.000000     1.000000
        PctRep13         PctNeu08   1     1.000000     1.050000
        PctRep13         PctNeu09   1     1.000000     1.100000
        PctRep13         PctNeu10   1     1.000000     1.150000
        PctRep13         PctNeu11   1     1.000000     1.200000
        PctRep13         PctNeu12   1     1.000000     1.250000
        PctRep13         PctNeu13   1     1.000000     1.300000
        PctRep13         PctNeu14   1     1.000000     1.350000
        PctRep13         PctNeu15   1     1.000000     1.400000
        PctRep13         PctNeu16   1     1.000000     1.450000
        PctRep13         PctNeu17   1     1.000000     1.500000
        PctRep13         PctNeu18   1     1.000000     1.550000
        PctRep13         PctNeu19   1     1.000000     1.600000
        PctRep13         PctNeu20   1     1.000000     1.650000
        PctRep13         PctXlk01   1     1.000000     2.650000
        PctRep13         PctXlk02   1     1.000000     2.700000
        PctRep13         PctXlk03   1     1.000000     2.750000
        PctRep13         PctXlk04   1     1.000000     2.800000
        PctRep13         PctXlk05   1     1.000000     2.850000
        PctRep13         PctXlk06   1     1.000000     2.900000
        PctRep13         PctXlk07   1     1.000000     2.950000
        PctRep13         PctXlk08   1     1.000000     3.000000
        PctRep13         PctXlk09   1     1.000000     3.050000
        PctRep13         PctXlk10   1     1.000000     3.100000
        PctRep13         PctXlk11   1     1.000000     3.150000
        PctRep14         PctRep14   1     1.000000     1.400000
        PctRep14         PctRep15   1     1.000000     1.500000
        PctRep14         PctRep16   1     1.000000     1.600000
        PctRep14         PctRep17   1     1.000000     1.700000
        PctRep14         PctRep18   1     1.000000     1.800000
        PctRep14         PctRep19   1     1.000000     1.900000
        PctRep14         PctRep20   1     1.000000     2.000000
        PctRep14         PctNeu01   1     1.000000     0.750000
        PctRep14         PctNeu02   1     1.000000     0.800000
        PctRep14         PctNeu03   1     1.000000     0.850000
        PctRep14         PctNeu04   1     1.000000     0.900000
        PctRep14         PctNeu05   1     1.000000     0.950000
        PctRep14         PctNeu06   1     1.000000     1.000000
        PctRep14         PctNeu07   1     1.000000     1.050000
        PctRep14         PctNeu08   1     1.000000     1.100000
        PctRep14         PctNeu09   1     1.000000     1.150000
        PctRep14         PctNeu10   1     1.000000     1.200000
        PctRep14         PctNeu11   1     1.000000     1.250000
        PctRep14         PctNeu12   1     1.000000     1.300000
        PctRep14         PctNeu13   1     1.000000     1.350000
        PctRep14         PctNeu14   1     1.000000     1.400000
        PctRep14         PctNeu15   1     1.000000     1.450000
        PctRep14         PctNeu16   1     1.000000     1.500000
        PctRep14         PctNeu17   1     1.000000     1.550000
        PctRep14         PctNeu18   1     1.000000     1.600000
        PctRep14         PctNeu19   1     1.000000     1.650000
        PctRep14         PctNeu20   1     1.000000     1.700000
        PctRep14         PctXlk01   1     1.000000     2.700000
        PctRep14         PctXlk02   1     1.000000     2.750000
        PctRep14         PctXlk03   1     1.000000     2.800000
        PctRep14         PctXlk04   1     1.000000     2.850000
        PctRep14         PctXlk05   1     1.000000     2.900000
        PctRep14         PctXlk06   1     1.000000     2.950000
        PctRep14         PctXlk07   1     1.000000     3.000000
        PctRep14         PctXlk08   1     1.000000     3.050000
        PctRep14         PctXlk09   1     1.000000     3.100000
        PctRep14         PctXlk10   1     1.000000     3.150000
        PctRep14         PctXlk11   1     1.000000     3.200000
        PctRep15         PctRep15   1     1.000000     1.500000
        PctRep15         PctRep16   1     1.000000     1.600000
        PctRep15         PctRep17   1     1.000000     1.700000
        PctRep15         PctRep18   1     1.000000     1.800000
        PctRep15         PctRep19   1     1.000000     1.900000
        PctRep15         PctRep20   1     1.000000     2.000000
        PctRep15         PctNeu01   1     1.000000     0.800000
        PctRep15         PctNeu02   1     1.000000     0.850000
        PctRep15         PctNeu03   1     1.000000     0.900000
        PctRep15         PctNeu04   1     1.000000     0.950000
        PctRep15         PctNeu05   1     1.000000     1.000000
        PctRep15         PctNeu06   1     1.000000     1.050000
        PctRep15         PctNeu07   1     1.000000     1.100000
        PctRep15         PctNeu08   1     1.000000     1.150000
        PctRep15         PctNeu09   1     1.000000     1.200000
        PctRep15         PctNeu10   1     1.000000     1.250000
        PctRep15         PctNeu11   1     1.000000     1.300000
        PctRep15         PctNeu12   1     1.000000     1.350000
        PctRep15         PctNeu13   1     1.000000     1.400000
        PctRep15         PctNeu14   1     1.000000     1.450000
        PctRep15         PctNeu15   1     1.000000     1.500000
        PctRep15         PctNeu16   1     1.000000     1.550000
        PctRep15         PctNeu17   1     1.000000     1.600000
        PctRep15         PctNeu18   1     1.000000     1.650000
        PctRep15         PctNeu19   1     1.000000     1.700000
        PctRep15         PctNeu20   1     1.000000     1.750000
        PctRep15         PctXlk01   1     1.000000     2.750000
        PctRep15         PctXlk02   1     1.000000     2.800000
        PctRep15         PctXlk03   1     1.000000     2.850000
        PctRep15         PctXlk04   1     1.000000     2.900000
        PctRep15         PctXlk05   1     1.000000     2.950000
        PctRep15         PctXlk06   1     1.000000     3.000000
        PctRep15         PctXlk07   1     1.000000     3.050000
        PctRep15         PctXlk08   1     1.000000     3.100000
        PctRep15         PctXlk09   1     1.000000     3.150000
        PctRep15         PctXlk10   1     1.000000     3.200000
        PctRep15         PctXlk11   1     1.000000     3.250000
        PctRep16         PctRep16   1     1.000000     1.600000
        PctRep16         PctRep17   1     1.000000     1.700000
        PctRep16         PctRep18   1     1.000000     1.800000
        PctRep16         PctRep19   1     1.000000     1.900000
        PctRep16         PctRep20   1     1.000000     2.000000
        PctRep16         PctNeu01   1     1.000000     0.850000
        PctRep16         PctNeu02   1     1.000000     0.900000
        PctRep16         PctNeu03   1     1.000000     0.950000
        PctRep16         PctNeu04   1     1.000000     1.000000
        PctRep16         PctNeu05   1     1.000000     1.050000
        PctRep16         PctNeu06   1     1.000000     1.100000
        PctRep16         PctNeu07   1     1.000000     1.150000
        PctRep16         PctNeu08   1     1.000000     1.200000
        PctRep16         PctNeu09   1     1.000000     1.250000
        PctRep16         PctNeu10   1     1.000000     1.300000
        PctRep16         PctNeu11   1     1.000000     1.350000
        PctRep16         PctNeu12   1     1.000000     1.400000
        PctRep16         PctNeu13   1     1.000000     1.450000
        PctRep16         PctNeu14   1     1.000000     1.500000
        PctRep16         PctNeu15   1     1.000000     1.550000
        PctRep16         PctNeu16   1     1.000000     1.600000
        PctRep16         PctNeu17   1     1.000000     1.650000
        PctRep16         PctNeu18   1     1.000000     1.700000
        PctRep16         PctNeu19   1     1.000000     1.750000
        PctRep16         PctNeu20   1     1.000000     1.800000
        PctRep16         PctXlk01   1     1.000000     2.800000
        PctRep16         PctXlk02   1     1.000000     2.850000
        PctRep16         PctXlk03   1     1.000000     2.900000
        PctRep16         PctXlk04   1     1.000000     2.950000
        PctRep16         PctXlk05   1     1.000000     3.000000
        PctRep16         PctXlk06   1     1.000000     3.050000
        PctRep16         PctXlk07   1     1.000000     3.100000
        PctRep16         PctXlk08   1     1.000000     3.150000
        PctRep16         PctXlk09   1     1.000000     3.200000
        PctRep16         PctXlk10   1     1.000000     3.250000
        PctRep16         PctXlk11   1     1.000000     3.300000
        PctRep17         PctRep17   1     1.000000     1.700000
        PctRep17         PctRep18   1     1.000000     1.800000
        PctRep17         PctRep19   1     1.000000     1.900000
        PctRep17         PctRep20   1     1.000000     2.000000
        PctRep17         PctNeu01   1     1.000000     0.900000
        PctRep17         PctNeu02   1     1.000000     0.950000
        PctRep17         PctNeu03   1     1.000000     1.000000
        PctRep17         PctNeu04   1     1.000000     1.050000
        PctRep17         PctNeu05   1     1.000000     1.100000
        PctRep17         PctNeu06   1     1.000000     1.150000
        PctRep17         PctNeu07   1     1.000000     1.200000
        PctRep17         PctNeu08   1     1.000000     1.250000
        PctRep17         PctNeu09   1     1.000000     1.300000
        PctRep17         PctNeu10   1     1.000000     1.350000
        PctRep17         PctNeu11   1     1.000000     1.400000
        PctRep17         PctNeu12   1     1.000000     1.450000
        PctRep17         PctNeu13   1     1.000000     1.500000
        PctRep17         PctNeu14   1     1.000000     1.550000
        PctRep17         PctNeu15   1     1.000000     1.600000
        PctRep17         PctNeu16   1     1.000000     1.650000
        PctRep17         PctNeu17   1     1.000000     1.700000
        PctRep17         PctNeu18   1     1.000000     1.750000
        PctRep17         PctNeu19   1     1.000000     1.800000
        PctRep17         PctNeu20   1     1.000000     1.850000
        PctRep17         PctXlk01   1     1.000000     2.850000
        PctRep17         PctXlk02   1     1.000000     2.900000
        PctRep17         PctXlk03   1     1.000000     2.950000
        PctRep17         PctXlk04   1     1.000000     3.000000
        PctRep17         PctXlk05   1     1.000000     3.050000
        PctRep17         PctXlk06   1     1.000000     3.100000
        PctRep17         PctXlk07   1     1.000000     3.150000
        PctRep17         PctXlk08   1     1.000000     3.200000
        PctRep17         PctXlk09   1     1.000000     3.250000
        PctRep17         PctXlk10   1     1.000000     3.300000
        PctRep17         PctXlk11   1     1.000000     3.350000
        PctRep18         PctRep18   1     1.000000     1.800000
        PctRep18         PctRep19   1     1.000000     1.900000
        PctRep18         PctRep20   1     1.000000     2.000000
        PctRep18         PctNeu01   1     1.000000     0.950000
        PctRep18         PctNeu02   1     1.000000     1.000000
        PctRep18         PctNeu03   1     1.000000     1.050000
        PctRep18         PctNeu04   1     1.000000     1.100000
        PctRep18         PctNeu05   1     1.000000     1.150000
        PctRep18         PctNeu06   1     1.000000     1.200000
        PctRep18         PctNeu07   1     1.000000     1.250000
        PctRep18         PctNeu08   1     1.000000     1.300000
        PctRep18         PctNeu09   1     1.000000     1.350000
        PctRep18         PctNeu10   1     1.000000     1.400000
        PctRep18         PctNeu11   1     1.000000     1.450000
        PctRep18         PctNeu12   1     1.000000     1.500000
        PctRep18         PctNeu13   1     1.000000     1.550000
        PctRep18         PctNeu14   1     1.000000     1.600000
        PctRep18         PctNeu15   1     1.000000     1.650000
        PctRep18         PctNeu16   1     1.000000     1.700000
        PctRep18         PctNeu17   1     1.000000     1.750000
        PctRep18         PctNeu18   1     1.000000     1.800000
        PctRep18         PctNeu19   1     1.000000     1.850000
        PctRep18         PctNeu20   1     1.000000     1.900000
        PctRep18         PctXlk01   1     1.000000     2.900000
        PctRep18         PctXlk02   1     1.000000     2.950000
        PctRep18         PctXlk03   1     1.000000     3.000000
        PctRep18         PctXlk04   1     1.000000     3.050000
        PctRep18         PctXlk05   1     1.000000     3.100000
        PctRep18         PctXlk06   1     1.000000     3.150000
        PctRep18         PctXlk07   1     1.000000     3.200000
        PctRep18         PctXlk08   1     1.000000     3.250000
        PctRep18         PctXlk09   1     1.000000     3.300000
        PctRep18         PctXlk10   1     1.000000     3.350000
        PctRep18         PctXlk11   1     1.000000     3.400000
        PctRep19         PctRep19   1     1.000000     1.900000
        PctRep19         PctRep20   1     1.000000     2.000000
        PctRep19         PctNeu01   1     1.000000     1.000000
        PctRep19         PctNeu02   1     1.000000     1.050000
        PctRep19         PctNeu03   1     1.000000     1.100000
        PctRep19         PctNeu04   1     1.000000     1.150000
        PctRep19         PctNeu05   1     1.000000     1.200000
        PctRep19         PctNeu06   1     1.000000     1.250000
        PctRep19         PctNeu07   1     1.000000     1.300000
        PctRep19         PctNeu08   1     1.000000     1.350000
        PctRep19         PctNeu09   1     1.000000     1.400000
        PctRep19         PctNeu10   1     1.000000     1.450000
        PctRep19         PctNeu11   1     1.000000     1.500000
        PctRep19         PctNeu12   1     1.000000     1.550000
        PctRep19         PctNeu13   1     1.000000     1.600000
        PctRep19         PctNeu14   1     1.000000     1.650000
        PctRep19         PctNeu15   1     1.000000     1.700000
        PctRep19         PctNeu16   1     1.000000     1.750000
        PctRep19         PctNeu17   1     1.000000     1.800000
        PctRep19         PctNeu18   1     1.000000     1.850000
        PctRep19         PctNeu19   1     1.000000     1.900000
        PctRep19         PctNeu20   1     1.000000     1.950000
        PctRep19         PctXlk01   1     1.000000     2.950000
        PctRep19         PctXlk02   1     1.000000     3.000000
        PctRep19         PctXlk03   1     1.000000     3.050000
        PctRep19         PctXlk04   1     1.000000     3.100000
        PctRep19         PctXlk05   1     1.000000     3.150000
        PctRep19         PctXlk06   1     1.000000     3.200000
        PctRep19         PctXlk07   1     1.000000     3.250000
        PctRep19         PctXlk08   1     1.000000     3.300000
        PctRep19         PctXlk09   1     1.000000     3.350000
        PctRep19         PctXlk10   1     1.000000     3.400000
        PctRep19         PctXlk11   1     1.000000     3.450000
        PctRep20         PctRep20   1     1.000000     2.000000
        PctRep20         PctNeu01   1     1.000000     1.050000
        PctRep20         PctNeu02   1     1.000000     1.100000
        PctRep20         PctNeu03   1     1.000000     1.150000
        PctRep20         PctNeu04   1     1.000000     1.200000
        PctRep20         PctNeu05   1     1.000000     1.250000
        PctRep20         PctNeu06   1     1.000000     1.300000
        PctRep20         PctNeu07   1     1.000000     1.350000
        PctRep20         PctNeu08   1     1.000000     1.400000
        PctRep20         PctNeu09   1     1.000000     1.450000
        PctRep20         PctNeu10   1     1.000000     1.500000
        PctRep20         PctNeu11   1     1.000000     1.550000
        PctRep20         PctNeu12   1     1.000000     1.600000
        PctRep20         PctNeu13   1     1.000000     1.650000
        PctRep20         PctNeu14   1     1.000000     1.700000
        PctRep20         PctNeu15   1     1.000000     1.750000
        PctRep20         PctNeu16   1     1.000000     1.800000
        PctRep20         PctNeu17   1     1.000000     1.850000
        PctRep20         PctNeu18   1     1.000000     1.900000
        PctRep20         PctNeu19   1     1.000000     1.950000
        PctRep20         PctNeu20   1     1.000000     2.000000
        PctRep20         PctXlk01   1     1.000000     3.000000
        PctRep20         PctXlk02   1     1.000000     3.050000
        PctRep20         PctXlk03   1     1.000000     3.100000
        PctRep20         PctXlk04   1     1.000000     3.150000
        PctRep20         PctXlk05   1     1.000000     3.200000
        PctRep20         PctXlk06   1     1.000000     3.250000
        PctRep20         PctXlk07   1     1.000000     3.300000
        PctRep20         PctXlk08   1     1.000000     3.350000
        PctRep20         PctXlk09   1     1.000000     3.400000
        PctRep20         PctXlk10   1     1.000000     3.450000
        PctRep20         PctXlk11   1     1.000000     3.500000
        PctNeu01         PctNeu01   1     1.000000     0.100000
        PctNeu01         PctNeu02   1     1.000000     0.200000
        PctNeu01         PctNeu03   1     1.000000     0.300000
        PctNeu01         PctNeu04   1     1.000000     0.400000
        PctNeu01         PctNeu05   1     1.000000     0.500000
        PctNeu01         PctNeu06   1     1.000000     0.600000
        PctNeu01         PctNeu07   1     1.000000     0.700000
        PctNeu01         PctNeu08   1     1.000000     0.800000
        PctNeu01         PctNeu09   1     1.000000     0.900000
        PctNeu01         PctNeu10   1     1.000000     1.000000
        PctNeu01         PctNeu11   1     1.000000     1.100000
        PctNeu01         PctNeu12   1     1.000000     1.200000
        PctNeu01         PctNeu13   1     1.000000     1.300000
        PctNeu01         PctNeu14   1     1.000000     1.400000
        PctNeu01         PctNeu15   1     1.000000     1.500000
        PctNeu01         PctNeu16   1     1.000000     1.600000
        PctNeu01         PctNeu17   1     1.000000     1.700000
        PctNeu01         PctNeu18   1     1.000000     1.800000
        PctNeu01         PctNeu19   1     1.000000     1.900000
        PctNeu01         PctNeu20   1     1.000000     2.000000
        PctNeu01         PctXlk01   1     1.000000     2.050000
        PctNeu01         PctXlk02   1     1.000000     2.100000
        PctNeu01         PctXlk03   1     1.000000     2.150000
        PctNeu01         PctXlk04   1     1.000000     2.200000
        PctNeu01         PctXlk05   1     1.000000     2.250000
        PctNeu01         PctXlk06   1     1.000000     2.300000
        PctNeu01         PctXlk07   1     1.000000     2.350000
        PctNeu01         PctXlk08   1     1.000000     2.400000
        PctNeu01         PctXlk09   1     1.000000     2.450000
        PctNeu01         PctXlk10   1     1.000000     2.500000
        PctNeu01         PctXlk11   1     1.000000     2.550000
        PctNeu02         PctNeu02   1     1.000000     0.200000
        PctNeu02         PctNeu03   1     1.000000     0.300000
        PctNeu02         PctNeu04   1     1.000000     0.400000
        PctNeu02         PctNeu05   1     1.000000     0.500000
        PctNeu02         PctNeu06   1     1.000000     0.600000
        PctNeu02         PctNeu07   1     1.000000     0.700000
        PctNeu02         PctNeu08   1     1.000000     0.800000
        PctNeu02         PctNeu09   1     1.000000     0.900000
        PctNeu02         PctNeu10   1     1.000000     1.000000
        PctNeu02         PctNeu11   1     1.000000     1.100000
        PctNeu02         PctNeu12   1     1.000000     1.200000
        PctNeu02         PctNeu13   1     1.000000     1.300000
        PctNeu02         PctNeu14   1     1.000000     1.400000
        PctNeu02         PctNeu15   1     1.000000     1.500000
        PctNeu02         PctNeu16   1     1.000000     1.600000
        PctNeu02         PctNeu17   1     1.000000     1.700000
        PctNeu02         PctNeu18   1     1.000000     1.800000
        PctNeu02         PctNeu19   1     1.000000     1.900000
        PctNeu02         PctNeu20   1     1.000000     2.000000
        PctNeu02         PctXlk01   1     1.000000     2.100000
        PctNeu02         PctXlk02   1     1.000000     2.150000
        PctNeu02         PctXlk03   1     1.000000     2.200000
        PctNeu02         PctXlk04   1     1.000000     2.250000
        PctNeu02         PctXlk05   1     1.000000     2.300000
        PctNeu02         PctXlk06   1     1.000000     2.350000
        PctNeu02         PctXlk07   1     1.000000     2.400000
        PctNeu02         PctXlk08   1     1.000000     2.450000
        PctNeu02         PctXlk09   1     1.000000     2.500000
        PctNeu02         PctXlk10   1     1.000000     2.550000
        PctNeu02         PctXlk11   1     1.000000     2.600000
        PctNeu03         PctNeu03   1     1.000000     0.300000
        PctNeu03         PctNeu04   1     1.000000     0.400000
        PctNeu03         PctNeu05   1     1.000000     0.500000
        PctNeu03         PctNeu06   1     1.000000     0.600000
        PctNeu03         PctNeu07   1     1.000000     0.700000
        PctNeu03         PctNeu08   1     1.000000     0.800000
        PctNeu03         PctNeu09   1     1.000000     0.900000
        PctNeu03         PctNeu10   1     1.000000     1.000000
        PctNeu03         PctNeu11   1     1.000000     1.100000
        PctNeu03         PctNeu12   1     1.000000     1.200000
        PctNeu03         PctNeu13   1     1.000000     1.300000
        PctNeu03         PctNeu14   1     1.000000     1.400000
        PctNeu03         PctNeu15   1     1.000000     1.500000
        PctNeu03         PctNeu16   1     1.000000     1.600000
        PctNeu03         PctNeu17   1     1.000000     1.700000
        PctNeu03         PctNeu18   1     1.000000     1.800000
        PctNeu03         PctNeu19   1     1.000000     1.900000
        PctNeu03         PctNeu20   1     1.000000     2.000000
        PctNeu03         PctXlk01   1     1.000000     2.150000
        PctNeu03         PctXlk02   1     1.000000     2.200000
        PctNeu03         PctXlk03   1     1.000000     2.250000
        PctNeu03         PctXlk04   1     1.000000     2.300000
        PctNeu03         PctXlk05   1     1.000000     2.350000
        PctNeu03         PctXlk06   1     1.000000     2.400000
        PctNeu03         PctXlk07   1     1.000000     2.450000
        PctNeu03         PctXlk08   1     1.000000     2.500000
        PctNeu03         PctXlk09   1     1.000000     2.550000
        PctNeu03         PctXlk10   1     1.000000     2.600000
        PctNeu03         PctXlk11   1     1.000000     2.650000
        PctNeu04         PctNeu04   1     1.000000     0.400000
        PctNeu04         PctNeu05   1     1.000000     0.500000
        PctNeu04         PctNeu06   1     1.000000     0.600000
        PctNeu04         PctNeu07   1     1.000000     0.700000
        PctNeu04         PctNeu08   1     1.000000     0.800000
        PctNeu04         PctNeu09   1     1.000000     0.900000
        PctNeu04         PctNeu10   1     1.000000     1.000000
        PctNeu04         PctNeu11   1     1.000000     1.100000
        PctNeu04         PctNeu12   1     1.000000     1.200000
        PctNeu04         PctNeu13   1     1.000000     1.300000
        PctNeu04         PctNeu14   1     1.000000     1.400000
        PctNeu04         PctNeu15   1     1.000000     1.500000
        PctNeu04         PctNeu16   1     1.000000     1.600000
        PctNeu04         PctNeu17   1     1.000000     1.700000
        PctNeu04         PctNeu18   1     1.000000     1.800000
        PctNeu04         PctNeu19   1     1.000000     1.900000
        PctNeu04         PctNeu20   1     1.000000     2.000000
        PctNeu04         PctXlk01   1     1.000000     2.200000
        PctNeu04         PctXlk02   1     1.000000     2.250000
        PctNeu04         PctXlk03   1     1.000000     2.300000
        PctNeu04         PctXlk04   1     1.000000     2.350000
        PctNeu04         PctXlk05   1     1.000000     2.400000
        PctNeu04         PctXlk06   1     1.000000     2.450000
        PctNeu04         PctXlk07   1     1.000000     2.500000
        PctNeu04         PctXlk08   1     1.000000     2.550000
        PctNeu04         PctXlk09   1     1.000000     2.600000
        PctNeu04         PctXlk10   1     1.000000     2.650000
        PctNeu04         PctXlk11   1     1.000000     2.700000
        PctNeu05         PctNeu05   1     1.000000     0.500000
        PctNeu05         PctNeu06   1     1.000000     0.600000
        PctNeu05         PctNeu07   1     1.000000     0.700000
        PctNeu05         PctNeu08   1     1.000000     0.800000
        PctNeu05         PctNeu09   1     1.000000     0.900000
        PctNeu05         PctNeu10   1     1.000000     1.000000
        PctNeu05         PctNeu11   1     1.000000     1.100000
        PctNeu05         PctNeu12   1     1.000000     1.200000
        PctNeu05         PctNeu13   1     1.000000     1.300000
        PctNeu05         PctNeu14   1     1.000000     1.400000
        PctNeu05         PctNeu15   1     1.000000     1.500000
        PctNeu05         PctNeu16   1     1.000000     1.600000
        PctNeu05         PctNeu17   1     1.000000     1.700000
        PctNeu05         PctNeu18   1     1.000000     1.800000
        PctNeu05         PctNeu19   1     1.000000     1.900000
        PctNeu05         PctNeu20   1     1.000000     2.000000
        PctNeu05         PctXlk01   1     1.000000     2.250000
        PctNeu05         PctXlk02   1     1.000000     2.300000
        PctNeu05         PctXlk03   1     1.000000     2.350000
        PctNeu05         PctXlk04   1     1.000000     2.400000
        PctNeu05         PctXlk05   1     1.000000     2.450000
        PctNeu05         PctXlk06   1     1.000000     2.500000
        PctNeu05         PctXlk07   1     1.000000     2.550000
        PctNeu05         PctXlk08   1     1.000000     2.600000
        PctNeu05         PctXlk09   1     1.000000     2.650000
        PctNeu05         PctXlk10   1     1.000000     2.700000
        PctNeu05         PctXlk11   1     1.000000     2.750000
        PctNeu06         PctNeu06   1     1.000000     0.600000
        PctNeu06         PctNeu07   1     1.000000     0.700000
        PctNeu06         PctNeu08   1     1.000000     0.800000
        PctNeu06         PctNeu09   1     1.000000     0.900000
        PctNeu06         PctNeu10   1     1.000000     1.000000
        PctNeu06         PctNeu11   1     1.000000     1.100000
        PctNeu06         PctNeu12   1     1.000000     1.200000
        PctNeu06         PctNeu13   1     1.000000     1.300000
        PctNeu06         PctNeu14   1     1.000000     1.400000
        PctNeu06         PctNeu15   1     1.000000     1.500000
        PctNeu06         PctNeu16   1     1.000000     1.600000
        PctNeu06         PctNeu17   1     1.000000     1.700000
        PctNeu06         PctNeu18   1     1.000000     1.800000
        PctNeu06         PctNeu19   1     1.000000     1.900000
        PctNeu06         PctNeu20   1     1.000000     2.000000
        PctNeu06         PctXlk01   1     1.000000     2.300000
        PctNeu06         PctXlk02   1     1.000000     2.350000
        PctNeu06         PctXlk03   1     1.000000     2.400000
        PctNeu06         PctXlk04   1     1.000000     2.450000
        PctNeu06         PctXlk05   1     1.000000     2.500000
        PctNeu06         PctXlk06   1     1.000000     2.550000
        PctNeu06         PctXlk07   1     1.000000     2.600000
        PctNeu06         PctXlk08   1     1.000000     2.650000
        PctNeu06         PctXlk09   1     1.000000     2.700000
        PctNeu06         PctXlk10   1     1.000000     2.750000
        PctNeu06         PctXlk11   1     1.000000     2.800000
        PctNeu07         PctNeu07   1     1.000000     0.700000
        PctNeu07         PctNeu08   1     1.000000     0.800000
        PctNeu07         PctNeu09   1     1.000000     0.900000
        PctNeu07         PctNeu10   1     1.000000     1.000000
        PctNeu07         PctNeu11   1     1.000000     1.100000
        PctNeu07         PctNeu12   1     1.000000     1.200000
        PctNeu07         PctNeu13   1     1.000000     1.300000
        PctNeu07         PctNeu14   1     1.000000     1.400000
        PctNeu07         PctNeu15   1     1.000000     1.500000
        PctNeu07         PctNeu16   1     1.000000     1.600000
        PctNeu07         PctNeu17   1     1.000000     1.700000
        PctNeu07         PctNeu18   1     1.000000     1.800000
        PctNeu07         PctNeu19   1     1.000000     1.900000
        PctNeu07         PctNeu20   1     1.000000     2.000000
        PctNeu07         PctXlk01   1     1.000000     2.350000
        PctNeu07         PctXlk02   1     1.000000     2.400000
        PctNeu07         PctXlk03   1     1.000000     2.450000
        PctNeu07         PctXlk04   1     1.000000     2.500000
        PctNeu07         PctXlk05   1     1.000000     2.550000
        PctNeu07         PctXlk06   1     1.000000     2.600000
        PctNeu07         PctXlk07   1     1.000000     2.650000
        PctNeu07         PctXlk08   1     1.000000     2.700000
        PctNeu07         PctXlk09   1     1.000000     2.750000
        PctNeu07         PctXlk10   1     1.000000     2.800000
        PctNeu07         PctXlk11   1     1.000000     2.850000
        PctNeu08         PctNeu08   1     1.000000     0.800000
        PctNeu08         PctNeu09   1     1.000000     0.900000
        PctNeu08         PctNeu10   1     1.000000     1.000000
        PctNeu08         PctNeu11   1     1.000000     1.100000
        PctNeu08         PctNeu12   1     1.000000     1.200000
        PctNeu08         PctNeu13   1     1.000000     1.300000
        PctNeu08         PctNeu14   1     1.000000     1.400000
        PctNeu08         PctNeu15   1     1.000000     1.500000
        PctNeu08         PctNeu16   1     1.000000     1.600000
        PctNeu08         PctNeu17   1     1.000000     1.700000
        PctNeu08         PctNeu18   1     1.000000     1.800000
        PctNeu08         PctNeu19   1     1.000000     1.900000
        PctNeu08         PctNeu20   1     1.000000     2.000000
        PctNeu08         PctXlk01   1     1.000000     2.400000
        PctNeu08         PctXlk02   1     1.000000     2.450000
        PctNeu08         PctXlk03   1     1.000000     2.500000
        PctNeu08         PctXlk04   1     1.000000     2.550000
        PctNeu08         PctXlk05   1     1.000000     2.600000
        PctNeu08         PctXlk06   1     1.000000     2.650000
        PctNeu08         PctXlk07   1     1.000000     2.700000
        PctNeu08         PctXlk08   1     1.000000     2.750000
        PctNeu08         PctXlk09   1     1.000000     2.800000
        PctNeu08         PctXlk10   1     1.000000     2.850000
        PctNeu08         PctXlk11   1     1.000000     2.900000
        PctNeu09         PctNeu09   1     1.000000     0.900000
        PctNeu09         PctNeu10   1     1.000000     1.000000
        PctNeu09         PctNeu11   1     1.000000     1.100000
        PctNeu09         PctNeu12   1     1.000000     1.200000
        PctNeu09         PctNeu13   1     1.000000     1.300000
        PctNeu09         PctNeu14   1     1.000000     1.400000
        PctNeu09         PctNeu15   1     1.000000     1.500000
        PctNeu09         PctNeu16   1     1.000000     1.600000
        PctNeu09         PctNeu17   1     1.000000     1.700000
        PctNeu09         PctNeu18   1     1.000000     1.800000
        PctNeu09         PctNeu19   1     1.000000     1.900000
        PctNeu09         PctNeu20   1     1.000000     2.000000
        PctNeu09         PctXlk01   1     1.000000     2.450000
        PctNeu09         PctXlk02   1     1.000000     2.500000
        PctNeu09         PctXlk03   1     1.000000     2.550000
        PctNeu09         PctXlk04   1     1.000000     2.600000
        PctNeu09         PctXlk05   1     1.000000     2.650000
        PctNeu09         PctXlk06   1     1.000000     2.700000
        PctNeu09         PctXlk07   1     1.000000     2.750000
        PctNeu09         PctXlk08   1     1.000000     2.800000
        PctNeu09         PctXlk09   1     1.000000     2.850000
        PctNeu09         PctXlk10   1     1.000000     2.900000
        PctNeu09         PctXlk11   1     1.000000     2.950000
        PctNeu10         PctNeu10   1     1.000000     1.000000
        PctNeu10         PctNeu11   1     1.000000     1.100000
        PctNeu10         PctNeu12   1     1.000000     1.200000
        PctNeu10         PctNeu13   1     1.000000     1.300000
        PctNeu10         PctNeu14   1     1.000000     1.400000
        PctNeu10         PctNeu15   1     1.000000     1.500000
        PctNeu10         PctNeu16   1     1.000000     1.600000
        PctNeu10         PctNeu17   1     1.000000     1.700000
        PctNeu10         PctNeu18   1     1.000000     1.800000
        PctNeu10         PctNeu19   1     1.000000     1.900000
        PctNeu10         PctNeu20   1     1.000000     2.000000
        PctNeu10         PctXlk01   1     1.000000     2.500000
        PctNeu10         PctXlk02   1     1.000000     2.550000
        PctNeu10         PctXlk03   1     1.000000     2.600000
        PctNeu10         PctXlk04   1     1.000000     2.650000
        PctNeu10         PctXlk05   1     1.000000     2.700000
        PctNeu10         PctXlk06   1     1.000000     2.750000
        PctNeu10         PctXlk07   1     1.000000     2.800000
        PctNeu10         PctXlk08   1     1.000000     2.850000
        PctNeu10         PctXlk09   1     1.000000     2.900000
        PctNeu10         PctXlk10   1     1.000000     2.950000
        PctNeu10         PctXlk11   1     1.000000     3.000000
        PctNeu11         PctNeu11   1     1.000000     1.100000
        PctNeu11         PctNeu12   1     1.000000     1.200000
        PctNeu11         PctNeu13   1     1.000000     1.300000
        PctNeu11         PctNeu14   1     1.000000     1.400000
        PctNeu11         PctNeu15   1     1.000000     1.500000
        PctNeu11         PctNeu16   1     1.000000     1.600000
        PctNeu11         PctNeu17   1     1.000000     1.700000
        PctNeu11         PctNeu18   1     1.000000     1.800000
        PctNeu11         PctNeu19   1     1.000000     1.900000
        PctNeu11         PctNeu20   1     1.000000     2.000000
        PctNeu11         PctXlk01   1     1.000000     2.550000
        PctNeu11         PctXlk02   1     1.000000     2.600000
        PctNeu11         PctXlk03   1     1.000000     2.650000
        PctNeu11         PctXlk04   1     1.000000     2.700000
        PctNeu11         PctXlk05   1     1.000000     2.750000
        PctNeu11         PctXlk06   1     1.000000     2.800000
        PctNeu11         PctXlk07   1     1.000000     2.850000
        PctNeu11         PctXlk08   1     1.000000     2.900000
        PctNeu11         PctXlk09   1     1.000000     2.950000
        PctNeu11         PctXlk10   1     1.000000     3.000000
        PctNeu11         PctXlk11   1     1.000000     3.050000
        PctNeu12         PctNeu12   1     1.000000     1.200000
        PctNeu12         PctNeu13   1     1.000000     1.300000
        PctNeu12         PctNeu14   1     1.000000     1.400000
        PctNeu12         PctNeu15   1     1.000000     1.500000
        PctNeu12         PctNeu16   1     1.000000     1.600000
        PctNeu12         PctNeu17   1     1.000000     1.700000
        PctNeu12         PctNeu18   1     1.000000     1.800000
        PctNeu12         PctNeu19   1     1.000000     1.900000
        PctNeu12         PctNeu20   1     1.000000     2.000000
        PctNeu12         PctXlk01   1     1.000000     2.600000
        PctNeu12         PctXlk02   1     1.000000     2.650000
        PctNeu12         PctXlk03   1     1.000000     2.700000
        PctNeu12         PctXlk04   1     1.000000     2.750000
        PctNeu12         PctXlk05   1     1.000000     2.800000
        PctNeu12         PctXlk06   1     1.000000     2.850000
        PctNeu12         PctXlk07   1     1.000000     2.900000
        PctNeu12         PctXlk08   1     1.000000     2.950000
        PctNeu12         PctXlk09   1     1.000000     3.000000
        PctNeu12         PctXlk10   1     1.000000     3.050000
        PctNeu12         PctXlk11   1     1.000000     3.100000
        PctNeu13         PctNeu13   1     1.000000     1.300000
        PctNeu13         PctNeu14   1     1.000000     1.400000
        PctNeu13         PctNeu15   1     1.000000     1.500000
        PctNeu13         PctNeu16   1     1.000000     1.600000
        PctNeu13         PctNeu17   1     1.000000     1.700000
        PctNeu13         PctNeu18   1     1.000000     1.800000
        PctNeu13         PctNeu19   1     1.000000     1.900000
        PctNeu13         PctNeu20   1     1.000000     2.000000
        PctNeu13         PctXlk01   1     1.000000     2.650000
        PctNeu13         PctXlk02   1     1.000000     2.700000
        PctNeu13         PctXlk03   1     1.000000     2.750000
        PctNeu13         PctXlk04   1     1.000000     2.800000
        PctNeu13         PctXlk05   1     1.000000     2.850000
        PctNeu13         PctXlk06   1     1.000000     2.900000
        PctNeu13         PctXlk07   1     1.000000     2.950000
        PctNeu13         PctXlk08   1     1.000000     3.000000
        PctNeu13         PctXlk09   1     1.000000     3.050000
        PctNeu13         PctXlk10   1     1.000000     3.100000
        PctNeu13         PctXlk11   1     1.000000     3.150000
        PctNeu14         PctNeu14   1     1.000000     1.400000
        PctNeu14         PctNeu15   1     1.000000     1.500000
        PctNeu14         PctNeu16   1     1.000000     1.600000
        PctNeu14         PctNeu17   1     1.000000     1.700000
        PctNeu14         PctNeu18   1     1.000000     1.800000
        PctNeu14         PctNeu19   1     1.000000     1.900000
        PctNeu14         PctNeu20   1     1.000000     2.000000
        PctNeu14         PctXlk01   1     1.000000     2.700000
        PctNeu14         PctXlk02   1     1.000000     2.750000
        PctNeu14         PctXlk03   1     1.000000     2.800000
        PctNeu14         PctXlk04   1     1.000000     2.850000
        PctNeu14         PctXlk05   1     1.000000     2.900000
        PctNeu14         PctXlk06   1     1.000000     2.950000
        PctNeu14         PctXlk07   1     1.000000     3.000000
        PctNeu14         PctXlk08   1     1.000000     3.050000
        PctNeu14         PctXlk09   1     1.000000     3.100000
        PctNeu14         PctXlk10   1     1.000000     3.150000
        PctNeu14         PctXlk11   1     1.000000     3.200000
        PctNeu15         PctNeu15   1     1.000000     1.500000
        PctNeu15         PctNeu16   1     1.000000     1.600000
        PctNeu15         PctNeu17   1     1.000000     1.700000
        PctNeu15         PctNeu18   1     1.000000     1.800000
        PctNeu15         PctNeu19   1     1.000000     1.900000
        PctNeu15         PctNeu20   1     1.000000     2.000000
        PctNeu15         PctXlk01   1     1.000000     2.750000
        PctNeu15         PctXlk02   1     1.000000     2.800000
        PctNeu15         PctXlk03   1     1.000000     2.850000
        PctNeu15         PctXlk04   1     1.000000     2.900000
        PctNeu15         PctXlk05   1     1.000000     2.950000
        PctNeu15         PctXlk06   1     1.000000     3.000000
        PctNeu15         PctXlk07   1     1.000000     3.050000
        PctNeu15         PctXlk08   1     1.000000     3.100000
        PctNeu15         PctXlk09   1     1.000000     3.150000
        PctNeu15         PctXlk10   1     1.000000     3.200000
        PctNeu15         PctXlk11   1     1.000000     3.250000
        PctNeu16         PctNeu16   1     1.000000     1.600000
        PctNeu16         PctNeu17   1     1.000000     1.700000
        PctNeu16         PctNeu18   1     1.000000     1.800000
        PctNeu16         PctNeu19   1     1.000000     1.900000
        PctNeu16         PctNeu20   1     1.000000     2.000000
        PctNeu16         PctXlk01   1     1.000000     2.800000
        PctNeu16         PctXlk02   1     1.000000     2.850000
        PctNeu16         PctXlk03   1     1.000000     2.900000
        PctNeu16         PctXlk04   1     1.000000     2.950000
        PctNeu16         PctXlk05   1     1.000000     3.000000
        PctNeu16         PctXlk06   1     1.000000     3.050000
        PctNeu16         PctXlk07   1     1.000000     3.100000
        PctNeu16         PctXlk08   1     1.000000     3.150000
        PctNeu16         PctXlk09   1     1.000000     3.200000
        PctNeu16         PctXlk10   1     1.000000     3.250000
        PctNeu16         PctXlk11   1     1.000000     3.300000
        PctNeu17         PctNeu17   1     1.000000     1.700000
        PctNeu17         PctNeu18   1     1.000000     1.800000
        PctNeu17         PctNeu19   1     1.000000     1.900000
        PctNeu17         PctNeu20   1     1.000000     2.000000
        PctNeu17         PctXlk01   1     1.000000     2.850000
        PctNeu17         PctXlk02   1     1.000000     2.900000
        PctNeu17         PctXlk03   1     1.000000     2.950000
        PctNeu17         PctXlk04   1     1.000000     3.000000
        PctNeu17         PctXlk05   1     1.000000     3.050000
        PctNeu17         PctXlk06   1     1.000000     3.100000
        PctNeu17         PctXlk07   1     1.000000     3.150000
        PctNeu17         PctXlk08   1     1.000000     3.200000
        PctNeu17         PctXlk09   1     1.000000     3.250000
        PctNeu17         PctXlk10   1     1.000000     3.300000
        PctNeu17         PctXlk11   1     1.000000     3.350000
        PctNeu18         PctNeu18   1     1.000000     1.800000
        PctNeu18         PctNeu19   1     1.000000     1.900000
        PctNeu18         PctNeu20   1     1.000000     2.000000
        PctNeu18         PctXlk01   1     1.000000     2.900000
        PctNeu18         PctXlk02   1     1.000000     2.950000
        PctNeu18         PctXlk03   1     1.000000     3.000000
        PctNeu18         PctXlk04   1     1.000000     3.050000
        PctNeu18         PctXlk05   1     1.000000     3.100000
        PctNeu18         PctXlk06   1     1.000000     3.150000
        PctNeu18         PctXlk07   1     1.000000     3.200000
        PctNeu18         PctXlk08   1     1.000000     3.250000
        PctNeu18         PctXlk09   1     1.000000     3.300000
        PctNeu18         PctXlk10   1     1.000000     3.350000
        PctNeu18         PctXlk11   1     1.000000     3.400000
        PctNeu19         PctNeu19   1     1.000000     1.900000
        PctNeu19         PctNeu20   1     1.000000     2.000000
        PctNeu19         PctXlk01   1     1.000000     2.950000
        PctNeu19         PctXlk02   1     1.000000     3.000000
        PctNeu19         PctXlk03   1     1.000000     3.050000
        PctNeu19         PctXlk04   1     1.000000     3.100000
        PctNeu19         PctXlk05   1     1.000000     3.150000
        PctNeu19         PctXlk06   1     1.000000     3.200000
        PctNeu19         PctXlk07   1     1.000000     3.250000
        PctNeu19         PctXlk08   1     1.000000     3.300000
        PctNeu19         PctXlk09   1     1.000000     3.350000
        PctNeu19         PctXlk10   1     1.000000     3.400000
        PctNeu19         PctXlk11   1     1.000000     3.450000
        PctNeu20         PctNeu20   1     1.000000     2.000000
        PctNeu20         PctXlk01   1     1.000000     3.000000
        PctNeu20         PctXlk02   1     1.000000     3.050000
        PctNeu20         PctXlk03   1     1.000000     3.100000
        PctNeu20         PctXlk04   1     1.000000     3.150000
        PctNeu20         PctXlk05   1     1.000000     3.200000
        PctNeu20         PctXlk06   1     1.000000     3.250000
        PctNeu20         PctXlk07   1     1.000000     3.300000
        PctNeu20         PctXlk08   1     1.000000     3.350000
        PctNeu20         PctXlk09   1     1.000000     3.400000
        PctNeu20         PctXlk10   1     1.000000     3.450000
        PctNeu20         PctXlk11   1     1.000000     3.500000
        PctXlk01         PctXlk01   1     1.000000     4.000000
        PctXlk01         PctXlk02   1     1.000000     4.050000
        PctXlk01         PctXlk03   1     1.000000     4.100000
        PctXlk01         PctXlk04   1     1.000000     4.150000
        PctXlk01         PctXlk05   1     1.000000     4.200000
        PctXlk01         PctXlk06   1     1.000000     4.250000
        PctXlk01         PctXlk07   1     1.000000     4.300000
        PctXlk01         PctXlk08   1     1.000000     4.350000
        PctXlk01         PctXlk09   1     1.000000     4.400000
        PctXlk01         PctXlk10   1     1.000000     4.450000
        PctXlk01         PctXlk11   1     1.000000     4.500000
        PctXlk02         PctXlk02   1     1.000000     4.100000
        PctXlk02         PctXlk03   1     1.000000     4.150000
        PctXlk02         PctXlk04   1     1.000000     4.200000
        PctXlk02         PctXlk05   1     1.000000     4.250000
        PctXlk02         PctXlk06   1     1.000000     4.300000
        PctXlk02         PctXlk07   1     1.000000     4.350000
        PctXlk02         PctXlk08   1     1.000000     4.400000
        PctXlk02         PctXlk09   1     1.000000     4.450000
        PctXlk02         PctXlk10   1     1.000000     4.500000
        PctXlk02         PctXlk11   1     1.000000     4.550000
        PctXlk03         PctXlk03   1     1.000000     4.200000
        PctXlk03         PctXlk04   1     1.000000     4.250000
        PctXlk03         PctXlk05   1     1.000000     4.300000
        PctXlk03         PctXlk06   1     1.000000     4.350000
        PctXlk03         PctXlk07   1     1.000000     4.400000
        PctXlk03         PctXlk08   1     1.000000     4.450000
        PctXlk03         PctXlk09   1     1.000000     4.500000
        PctXlk03         PctXlk10   1     1.000000     4.550000
        PctXlk03         PctXlk11   1     1.000000     4.600000
        PctXlk04         PctXlk04   1     1.000000     4.300000
        PctXlk04         PctXlk05   1     1.000000     4.350000
        PctXlk04         PctXlk06   1     1.000000     4.400000
        PctXlk04         PctXlk07   1     1.000000     4.450000
        PctXlk04         PctXlk08   1     1.000000     4.500000
        PctXlk04         PctXlk09   1     1.000000     4.550000
        PctXlk04         PctXlk10   1     1.000000     4.600000
        PctXlk04         PctXlk11   1     1.000000     4.650000
        PctXlk05         PctXlk05   1     1.000000     4.400000
        PctXlk05         PctXlk06   1     1.000000     4.450000
        PctXlk05         PctXlk07   1     1.000000     4.500000
        PctXlk05         PctXlk08   1     1.000000     4.550000
        PctXlk05         PctXlk09   1     1.000000     4.600000
        PctXlk05         PctXlk10   1     1.000000     4.650000
        PctXlk05         PctXlk11   1     1.000000     4.700000
        PctXlk06         PctXlk06   1     1.000000     4.500000
        PctXlk06         PctXlk07   1     1.000000     4.550000
        PctXlk06         PctXlk08   1     1.000000     4.600000
        PctXlk06         PctXlk09   1     1.000000     4.650000
        PctXlk06         PctXlk10   1     1.000000     4.700000
        PctXlk06         PctXlk11   1     1.000000     4.750000
        PctXlk07         PctXlk07   1     1.000000     4.600000
        PctXlk07         PctXlk08   1     1.000000     4.650000
        PctXlk07         PctXlk09   1     1.000000     4.700000
        PctXlk07         PctXlk10   1     1.000000     4.750000
        PctXlk07         PctXlk11   1     1.000000     4.800000
        PctXlk08         PctXlk08   1     1.000000     4.700000
        PctXlk08         PctXlk09   1     1.000000     4.750000
        PctXlk08         PctXlk10   1     1.000000     4.800000
        PctXlk08         PctXlk11   1     1.000000     4.850000
        PctXlk09         PctXlk09   1     1.000000     4.800000
        PctXlk09         PctXlk10   1     1.000000     4.850000
        PctXlk09         PctXlk11   1     1.000000     4.900000
        PctXlk10         PctXlk10   1     1.000000     4.900000
        PctXlk10         PctXlk11   1     1.000000     4.950000
        PctXlk11         PctXlk11   1     1.000000     5.000000
