;;;;; Sudowoodo Force Field: Particle definition and LJ interactions
;;;;;
;;;;; File generated by build_sweep.py
;;;;;
;;;;; Version: 0.0.1
;;;;;

[ defaults ]
1 2 ; sigma-epsilon format of LJ parameters


[ atomtypes ]
; name  at.num  mass  charge  ptype  sigma  epsilon
C            1   100.0 0.000 A  0.000000    0.000000
X            1    50.0 0.000 A  0.000000    0.000000
P            1    26.6 0.000 A  0.000000    0.000000
PctRep           1   26.6 0.000 A   0.000000    0.000000
PctNeu           1   26.6 0.000 A   0.000000    0.000000
PctXlk           1   26.6 0.000 A   0.000000    0.000000

[ nonbond_params ]
;   i     j  func  sigma(nm)   epsilon(kJ/mol)
           C            C   1     2.673000     1.000000
           C            X   1     2.087000     1.000000
           C            P   1     1.837000     1.000000
           X            X   1     1.500000     1.000000
           X            P   1     1.250000     1.000000
           P            P   1     1.000000     1.000000
           C           PctRep   1     1.837000     2.500000
           C           PctNeu   1     1.837000     2.500000
           C           PctXlk   1     1.837000     2.500000
           X           PctRep   1     1.250000     2.500000
           X           PctNeu   1     1.250000     2.500000
           X           PctXlk   1     1.250000     2.500000
           P           PctRep   1     1.000000     1.000000
           P           PctNeu   1     1.000000     1.000000
           P           PctXlk   1     1.000000     1.000000
          PctRep           PctRep   1     1.000000     0.100000
          PctRep           PctNeu   1     1.000000     1.300000
          PctRep           PctXlk   1     1.000000     2.050000
          PctNeu           PctNeu   1     1.000000     2.500000
          PctNeu           PctXlk   1     1.000000     3.250000
          PctXlk           PctXlk   1     1.000000     4.000000
