;;;;; Sudowoodo Force Field: Particle definition and LJ interactions
;;;;;
;;;;; File generated by build_sweep.py
;;;;;
;;;;; Version: 0.0.1
;;;;;

[ defaults ]
1 2 ; sigma-epsilon format of LJ parameters


[ atomtypes ]
; name  at.num  mass  charge  ptype  sigma  epsilon
C            1   100.0 0.000 A  0.000000    0.000000
X            1    50.0 0.000 A  0.000000    0.000000
P            1    26.6 0.000 A  0.000000    0.000000
PR.1             1   26.6 0.000 A   0.000000    0.000000
PR.2             1   26.6 0.000 A   0.000000    0.000000
PR.3             1   26.6 0.000 A   0.000000    0.000000
PR.4             1   26.6 0.000 A   0.000000    0.000000
PR.5             1   26.6 0.000 A   0.000000    0.000000
PR.6             1   26.6 0.000 A   0.000000    0.000000
PR.7             1   26.6 0.000 A   0.000000    0.000000
PR.8             1   26.6 0.000 A   0.000000    0.000000
PR.9             1   26.6 0.000 A   0.000000    0.000000
PR1.0            1   26.6 0.000 A   0.000000    0.000000
PR1.1            1   26.6 0.000 A   0.000000    0.000000
PR1.2            1   26.6 0.000 A   0.000000    0.000000
PR1.3            1   26.6 0.000 A   0.000000    0.000000
PR1.4            1   26.6 0.000 A   0.000000    0.000000
PR1.5            1   26.6 0.000 A   0.000000    0.000000
PR1.6            1   26.6 0.000 A   0.000000    0.000000
PR1.7            1   26.6 0.000 A   0.000000    0.000000
PR1.8            1   26.6 0.000 A   0.000000    0.000000
PR1.9            1   26.6 0.000 A   0.000000    0.000000
PR2.0            1   26.6 0.000 A   0.000000    0.000000
PN.1             1   26.6 0.000 A   0.000000    0.000000
PN.2             1   26.6 0.000 A   0.000000    0.000000
PN.3             1   26.6 0.000 A   0.000000    0.000000
PN.4             1   26.6 0.000 A   0.000000    0.000000
PN.5             1   26.6 0.000 A   0.000000    0.000000
PN.6             1   26.6 0.000 A   0.000000    0.000000
PN.7             1   26.6 0.000 A   0.000000    0.000000
PN.8             1   26.6 0.000 A   0.000000    0.000000
PN.9             1   26.6 0.000 A   0.000000    0.000000
PN1.0            1   26.6 0.000 A   0.000000    0.000000
PN1.1            1   26.6 0.000 A   0.000000    0.000000
PN1.2            1   26.6 0.000 A   0.000000    0.000000
PN1.3            1   26.6 0.000 A   0.000000    0.000000
PN1.4            1   26.6 0.000 A   0.000000    0.000000
PN1.5            1   26.6 0.000 A   0.000000    0.000000
PN1.6            1   26.6 0.000 A   0.000000    0.000000
PN1.7            1   26.6 0.000 A   0.000000    0.000000
PN1.8            1   26.6 0.000 A   0.000000    0.000000
PN1.9            1   26.6 0.000 A   0.000000    0.000000
PN2.0            1   26.6 0.000 A   0.000000    0.000000
PC4.0            1   26.6 0.000 A   0.000000    0.000000
PC4.1            1   26.6 0.000 A   0.000000    0.000000
PC4.2            1   26.6 0.000 A   0.000000    0.000000
PC4.3            1   26.6 0.000 A   0.000000    0.000000
PC4.4            1   26.6 0.000 A   0.000000    0.000000
PC4.5            1   26.6 0.000 A   0.000000    0.000000
PC4.6            1   26.6 0.000 A   0.000000    0.000000
PC4.7            1   26.6 0.000 A   0.000000    0.000000
PC4.8            1   26.6 0.000 A   0.000000    0.000000
PC4.9            1   26.6 0.000 A   0.000000    0.000000
PC5.0            1   26.6 0.000 A   0.000000    0.000000

[ nonbond_params ]
;   i     j  func  sigma(nm)   epsilon(kJ/mol)
           C            C   1     2.673000     1.000000
           C            X   1     2.087000     1.000000
           C            P   1     1.837000     1.000000
           X            X   1     1.500000     1.000000
           X            P   1     1.250000     1.000000
           P            P   1     1.000000     1.000000
           C             PR.1   1     1.837000     1.000000
           C             PR.2   1     1.837000     1.000000
           C             PR.3   1     1.837000     1.000000
           C             PR.4   1     1.837000     1.000000
           C             PR.5   1     1.837000     1.000000
           C             PR.6   1     1.837000     1.000000
           C             PR.7   1     1.837000     1.000000
           C             PR.8   1     1.837000     1.000000
           C             PR.9   1     1.837000     1.000000
           C            PR1.0   1     1.837000     1.000000
           C            PR1.1   1     1.837000     1.000000
           C            PR1.2   1     1.837000     1.000000
           C            PR1.3   1     1.837000     1.000000
           C            PR1.4   1     1.837000     1.000000
           C            PR1.5   1     1.837000     1.000000
           C            PR1.6   1     1.837000     1.000000
           C            PR1.7   1     1.837000     1.000000
           C            PR1.8   1     1.837000     1.000000
           C            PR1.9   1     1.837000     1.000000
           C            PR2.0   1     1.837000     1.000000
           C             PN.1   1     1.837000     1.000000
           C             PN.2   1     1.837000     1.000000
           C             PN.3   1     1.837000     1.000000
           C             PN.4   1     1.837000     1.000000
           C             PN.5   1     1.837000     1.000000
           C             PN.6   1     1.837000     1.000000
           C             PN.7   1     1.837000     1.000000
           C             PN.8   1     1.837000     1.000000
           C             PN.9   1     1.837000     1.000000
           C            PN1.0   1     1.837000     1.000000
           C            PN1.1   1     1.837000     1.000000
           C            PN1.2   1     1.837000     1.000000
           C            PN1.3   1     1.837000     1.000000
           C            PN1.4   1     1.837000     1.000000
           C            PN1.5   1     1.837000     1.000000
           C            PN1.6   1     1.837000     1.000000
           C            PN1.7   1     1.837000     1.000000
           C            PN1.8   1     1.837000     1.000000
           C            PN1.9   1     1.837000     1.000000
           C            PN2.0   1     1.837000     1.000000
           C            PC4.0   1     1.837000     1.000000
           C            PC4.1   1     1.837000     1.000000
           C            PC4.2   1     1.837000     1.000000
           C            PC4.3   1     1.837000     1.000000
           C            PC4.4   1     1.837000     1.000000
           C            PC4.5   1     1.837000     1.000000
           C            PC4.6   1     1.837000     1.000000
           C            PC4.7   1     1.837000     1.000000
           C            PC4.8   1     1.837000     1.000000
           C            PC4.9   1     1.837000     1.000000
           C            PC5.0   1     1.837000     1.000000
           X             PR.1   1     1.250000     1.000000
           X             PR.2   1     1.250000     1.000000
           X             PR.3   1     1.250000     1.000000
           X             PR.4   1     1.250000     1.000000
           X             PR.5   1     1.250000     1.000000
           X             PR.6   1     1.250000     1.000000
           X             PR.7   1     1.250000     1.000000
           X             PR.8   1     1.250000     1.000000
           X             PR.9   1     1.250000     1.000000
           X            PR1.0   1     1.250000     1.000000
           X            PR1.1   1     1.250000     1.000000
           X            PR1.2   1     1.250000     1.000000
           X            PR1.3   1     1.250000     1.000000
           X            PR1.4   1     1.250000     1.000000
           X            PR1.5   1     1.250000     1.000000
           X            PR1.6   1     1.250000     1.000000
           X            PR1.7   1     1.250000     1.000000
           X            PR1.8   1     1.250000     1.000000
           X            PR1.9   1     1.250000     1.000000
           X            PR2.0   1     1.250000     1.000000
           X             PN.1   1     1.250000     1.000000
           X             PN.2   1     1.250000     1.000000
           X             PN.3   1     1.250000     1.000000
           X             PN.4   1     1.250000     1.000000
           X             PN.5   1     1.250000     1.000000
           X             PN.6   1     1.250000     1.000000
           X             PN.7   1     1.250000     1.000000
           X             PN.8   1     1.250000     1.000000
           X             PN.9   1     1.250000     1.000000
           X            PN1.0   1     1.250000     1.000000
           X            PN1.1   1     1.250000     1.000000
           X            PN1.2   1     1.250000     1.000000
           X            PN1.3   1     1.250000     1.000000
           X            PN1.4   1     1.250000     1.000000
           X            PN1.5   1     1.250000     1.000000
           X            PN1.6   1     1.250000     1.000000
           X            PN1.7   1     1.250000     1.000000
           X            PN1.8   1     1.250000     1.000000
           X            PN1.9   1     1.250000     1.000000
           X            PN2.0   1     1.250000     1.000000
           X            PC4.0   1     1.250000     1.000000
           X            PC4.1   1     1.250000     1.000000
           X            PC4.2   1     1.250000     1.000000
           X            PC4.3   1     1.250000     1.000000
           X            PC4.4   1     1.250000     1.000000
           X            PC4.5   1     1.250000     1.000000
           X            PC4.6   1     1.250000     1.000000
           X            PC4.7   1     1.250000     1.000000
           X            PC4.8   1     1.250000     1.000000
           X            PC4.9   1     1.250000     1.000000
           X            PC5.0   1     1.250000     1.000000
           P             PR.1   1     1.000000     1.000000
           P             PR.2   1     1.000000     1.000000
           P             PR.3   1     1.000000     1.000000
           P             PR.4   1     1.000000     1.000000
           P             PR.5   1     1.000000     1.000000
           P             PR.6   1     1.000000     1.000000
           P             PR.7   1     1.000000     1.000000
           P             PR.8   1     1.000000     1.000000
           P             PR.9   1     1.000000     1.000000
           P            PR1.0   1     1.000000     1.000000
           P            PR1.1   1     1.000000     1.000000
           P            PR1.2   1     1.000000     1.000000
           P            PR1.3   1     1.000000     1.000000
           P            PR1.4   1     1.000000     1.000000
           P            PR1.5   1     1.000000     1.000000
           P            PR1.6   1     1.000000     1.000000
           P            PR1.7   1     1.000000     1.000000
           P            PR1.8   1     1.000000     1.000000
           P            PR1.9   1     1.000000     1.000000
           P            PR2.0   1     1.000000     1.000000
           P             PN.1   1     1.000000     1.000000
           P             PN.2   1     1.000000     1.000000
           P             PN.3   1     1.000000     1.000000
           P             PN.4   1     1.000000     1.000000
           P             PN.5   1     1.000000     1.000000
           P             PN.6   1     1.000000     1.000000
           P             PN.7   1     1.000000     1.000000
           P             PN.8   1     1.000000     1.000000
           P             PN.9   1     1.000000     1.000000
           P            PN1.0   1     1.000000     1.000000
           P            PN1.1   1     1.000000     1.000000
           P            PN1.2   1     1.000000     1.000000
           P            PN1.3   1     1.000000     1.000000
           P            PN1.4   1     1.000000     1.000000
           P            PN1.5   1     1.000000     1.000000
           P            PN1.6   1     1.000000     1.000000
           P            PN1.7   1     1.000000     1.000000
           P            PN1.8   1     1.000000     1.000000
           P            PN1.9   1     1.000000     1.000000
           P            PN2.0   1     1.000000     1.000000
           P            PC4.0   1     1.000000     1.000000
           P            PC4.1   1     1.000000     1.000000
           P            PC4.2   1     1.000000     1.000000
           P            PC4.3   1     1.000000     1.000000
           P            PC4.4   1     1.000000     1.000000
           P            PC4.5   1     1.000000     1.000000
           P            PC4.6   1     1.000000     1.000000
           P            PC4.7   1     1.000000     1.000000
           P            PC4.8   1     1.000000     1.000000
           P            PC4.9   1     1.000000     1.000000
           P            PC5.0   1     1.000000     1.000000
            PR.1             PR.1   1     1.000000     0.100000
            PR.1             PR.2   1     1.000000     0.200000
            PR.1             PR.3   1     1.000000     0.300000
            PR.1             PR.4   1     1.000000     0.400000
            PR.1             PR.5   1     1.000000     0.500000
            PR.1             PR.6   1     1.000000     0.600000
            PR.1             PR.7   1     1.000000     0.700000
            PR.1             PR.8   1     1.000000     0.800000
            PR.1             PR.9   1     1.000000     0.900000
            PR.1            PR1.0   1     1.000000     1.000000
            PR.1            PR1.1   1     1.000000     1.100000
            PR.1            PR1.2   1     1.000000     1.200000
            PR.1            PR1.3   1     1.000000     1.300000
            PR.1            PR1.4   1     1.000000     1.400000
            PR.1            PR1.5   1     1.000000     1.500000
            PR.1            PR1.6   1     1.000000     1.600000
            PR.1            PR1.7   1     1.000000     1.700000
            PR.1            PR1.8   1     1.000000     1.800000
            PR.1            PR1.9   1     1.000000     1.900000
            PR.1            PR2.0   1     1.000000     2.000000
            PR.1             PN.1   1     1.000000     0.100000
            PR.1             PN.2   1     1.000000     0.200000
            PR.1             PN.3   1     1.000000     0.300000
            PR.1             PN.4   1     1.000000     0.400000
            PR.1             PN.5   1     1.000000     0.500000
            PR.1             PN.6   1     1.000000     0.600000
            PR.1             PN.7   1     1.000000     0.700000
            PR.1             PN.8   1     1.000000     0.800000
            PR.1             PN.9   1     1.000000     0.900000
            PR.1            PN1.0   1     1.000000     1.000000
            PR.1            PN1.1   1     1.000000     1.100000
            PR.1            PN1.2   1     1.000000     1.200000
            PR.1            PN1.3   1     1.000000     1.300000
            PR.1            PN1.4   1     1.000000     1.400000
            PR.1            PN1.5   1     1.000000     1.500000
            PR.1            PN1.6   1     1.000000     1.600000
            PR.1            PN1.7   1     1.000000     1.700000
            PR.1            PN1.8   1     1.000000     1.800000
            PR.1            PN1.9   1     1.000000     1.900000
            PR.1            PN2.0   1     1.000000     2.000000
            PR.1            PC4.0   1     1.000000     4.000000
            PR.1            PC4.1   1     1.000000     4.100000
            PR.1            PC4.2   1     1.000000     4.200000
            PR.1            PC4.3   1     1.000000     4.300000
            PR.1            PC4.4   1     1.000000     4.400000
            PR.1            PC4.5   1     1.000000     4.500000
            PR.1            PC4.6   1     1.000000     4.600000
            PR.1            PC4.7   1     1.000000     4.700000
            PR.1            PC4.8   1     1.000000     4.800000
            PR.1            PC4.9   1     1.000000     4.900000
            PR.1            PC5.0   1     1.000000     5.000000
            PR.2             PR.2   1     1.000000     0.200000
            PR.2             PR.3   1     1.000000     0.300000
            PR.2             PR.4   1     1.000000     0.400000
            PR.2             PR.5   1     1.000000     0.500000
            PR.2             PR.6   1     1.000000     0.600000
            PR.2             PR.7   1     1.000000     0.700000
            PR.2             PR.8   1     1.000000     0.800000
            PR.2             PR.9   1     1.000000     0.900000
            PR.2            PR1.0   1     1.000000     1.000000
            PR.2            PR1.1   1     1.000000     1.100000
            PR.2            PR1.2   1     1.000000     1.200000
            PR.2            PR1.3   1     1.000000     1.300000
            PR.2            PR1.4   1     1.000000     1.400000
            PR.2            PR1.5   1     1.000000     1.500000
            PR.2            PR1.6   1     1.000000     1.600000
            PR.2            PR1.7   1     1.000000     1.700000
            PR.2            PR1.8   1     1.000000     1.800000
            PR.2            PR1.9   1     1.000000     1.900000
            PR.2            PR2.0   1     1.000000     2.000000
            PR.2             PN.1   1     1.000000     0.200000
            PR.2             PN.2   1     1.000000     0.200000
            PR.2             PN.3   1     1.000000     0.300000
            PR.2             PN.4   1     1.000000     0.400000
            PR.2             PN.5   1     1.000000     0.500000
            PR.2             PN.6   1     1.000000     0.600000
            PR.2             PN.7   1     1.000000     0.700000
            PR.2             PN.8   1     1.000000     0.800000
            PR.2             PN.9   1     1.000000     0.900000
            PR.2            PN1.0   1     1.000000     1.000000
            PR.2            PN1.1   1     1.000000     1.100000
            PR.2            PN1.2   1     1.000000     1.200000
            PR.2            PN1.3   1     1.000000     1.300000
            PR.2            PN1.4   1     1.000000     1.400000
            PR.2            PN1.5   1     1.000000     1.500000
            PR.2            PN1.6   1     1.000000     1.600000
            PR.2            PN1.7   1     1.000000     1.700000
            PR.2            PN1.8   1     1.000000     1.800000
            PR.2            PN1.9   1     1.000000     1.900000
            PR.2            PN2.0   1     1.000000     2.000000
            PR.2            PC4.0   1     1.000000     4.000000
            PR.2            PC4.1   1     1.000000     4.100000
            PR.2            PC4.2   1     1.000000     4.200000
            PR.2            PC4.3   1     1.000000     4.300000
            PR.2            PC4.4   1     1.000000     4.400000
            PR.2            PC4.5   1     1.000000     4.500000
            PR.2            PC4.6   1     1.000000     4.600000
            PR.2            PC4.7   1     1.000000     4.700000
            PR.2            PC4.8   1     1.000000     4.800000
            PR.2            PC4.9   1     1.000000     4.900000
            PR.2            PC5.0   1     1.000000     5.000000
            PR.3             PR.3   1     1.000000     0.300000
            PR.3             PR.4   1     1.000000     0.400000
            PR.3             PR.5   1     1.000000     0.500000
            PR.3             PR.6   1     1.000000     0.600000
            PR.3             PR.7   1     1.000000     0.700000
            PR.3             PR.8   1     1.000000     0.800000
            PR.3             PR.9   1     1.000000     0.900000
            PR.3            PR1.0   1     1.000000     1.000000
            PR.3            PR1.1   1     1.000000     1.100000
            PR.3            PR1.2   1     1.000000     1.200000
            PR.3            PR1.3   1     1.000000     1.300000
            PR.3            PR1.4   1     1.000000     1.400000
            PR.3            PR1.5   1     1.000000     1.500000
            PR.3            PR1.6   1     1.000000     1.600000
            PR.3            PR1.7   1     1.000000     1.700000
            PR.3            PR1.8   1     1.000000     1.800000
            PR.3            PR1.9   1     1.000000     1.900000
            PR.3            PR2.0   1     1.000000     2.000000
            PR.3             PN.1   1     1.000000     0.300000
            PR.3             PN.2   1     1.000000     0.300000
            PR.3             PN.3   1     1.000000     0.300000
            PR.3             PN.4   1     1.000000     0.400000
            PR.3             PN.5   1     1.000000     0.500000
            PR.3             PN.6   1     1.000000     0.600000
            PR.3             PN.7   1     1.000000     0.700000
            PR.3             PN.8   1     1.000000     0.800000
            PR.3             PN.9   1     1.000000     0.900000
            PR.3            PN1.0   1     1.000000     1.000000
            PR.3            PN1.1   1     1.000000     1.100000
            PR.3            PN1.2   1     1.000000     1.200000
            PR.3            PN1.3   1     1.000000     1.300000
            PR.3            PN1.4   1     1.000000     1.400000
            PR.3            PN1.5   1     1.000000     1.500000
            PR.3            PN1.6   1     1.000000     1.600000
            PR.3            PN1.7   1     1.000000     1.700000
            PR.3            PN1.8   1     1.000000     1.800000
            PR.3            PN1.9   1     1.000000     1.900000
            PR.3            PN2.0   1     1.000000     2.000000
            PR.3            PC4.0   1     1.000000     4.000000
            PR.3            PC4.1   1     1.000000     4.100000
            PR.3            PC4.2   1     1.000000     4.200000
            PR.3            PC4.3   1     1.000000     4.300000
            PR.3            PC4.4   1     1.000000     4.400000
            PR.3            PC4.5   1     1.000000     4.500000
            PR.3            PC4.6   1     1.000000     4.600000
            PR.3            PC4.7   1     1.000000     4.700000
            PR.3            PC4.8   1     1.000000     4.800000
            PR.3            PC4.9   1     1.000000     4.900000
            PR.3            PC5.0   1     1.000000     5.000000
            PR.4             PR.4   1     1.000000     0.400000
            PR.4             PR.5   1     1.000000     0.500000
            PR.4             PR.6   1     1.000000     0.600000
            PR.4             PR.7   1     1.000000     0.700000
            PR.4             PR.8   1     1.000000     0.800000
            PR.4             PR.9   1     1.000000     0.900000
            PR.4            PR1.0   1     1.000000     1.000000
            PR.4            PR1.1   1     1.000000     1.100000
            PR.4            PR1.2   1     1.000000     1.200000
            PR.4            PR1.3   1     1.000000     1.300000
            PR.4            PR1.4   1     1.000000     1.400000
            PR.4            PR1.5   1     1.000000     1.500000
            PR.4            PR1.6   1     1.000000     1.600000
            PR.4            PR1.7   1     1.000000     1.700000
            PR.4            PR1.8   1     1.000000     1.800000
            PR.4            PR1.9   1     1.000000     1.900000
            PR.4            PR2.0   1     1.000000     2.000000
            PR.4             PN.1   1     1.000000     0.400000
            PR.4             PN.2   1     1.000000     0.400000
            PR.4             PN.3   1     1.000000     0.400000
            PR.4             PN.4   1     1.000000     0.400000
            PR.4             PN.5   1     1.000000     0.500000
            PR.4             PN.6   1     1.000000     0.600000
            PR.4             PN.7   1     1.000000     0.700000
            PR.4             PN.8   1     1.000000     0.800000
            PR.4             PN.9   1     1.000000     0.900000
            PR.4            PN1.0   1     1.000000     1.000000
            PR.4            PN1.1   1     1.000000     1.100000
            PR.4            PN1.2   1     1.000000     1.200000
            PR.4            PN1.3   1     1.000000     1.300000
            PR.4            PN1.4   1     1.000000     1.400000
            PR.4            PN1.5   1     1.000000     1.500000
            PR.4            PN1.6   1     1.000000     1.600000
            PR.4            PN1.7   1     1.000000     1.700000
            PR.4            PN1.8   1     1.000000     1.800000
            PR.4            PN1.9   1     1.000000     1.900000
            PR.4            PN2.0   1     1.000000     2.000000
            PR.4            PC4.0   1     1.000000     4.000000
            PR.4            PC4.1   1     1.000000     4.100000
            PR.4            PC4.2   1     1.000000     4.200000
            PR.4            PC4.3   1     1.000000     4.300000
            PR.4            PC4.4   1     1.000000     4.400000
            PR.4            PC4.5   1     1.000000     4.500000
            PR.4            PC4.6   1     1.000000     4.600000
            PR.4            PC4.7   1     1.000000     4.700000
            PR.4            PC4.8   1     1.000000     4.800000
            PR.4            PC4.9   1     1.000000     4.900000
            PR.4            PC5.0   1     1.000000     5.000000
            PR.5             PR.5   1     1.000000     0.500000
            PR.5             PR.6   1     1.000000     0.600000
            PR.5             PR.7   1     1.000000     0.700000
            PR.5             PR.8   1     1.000000     0.800000
            PR.5             PR.9   1     1.000000     0.900000
            PR.5            PR1.0   1     1.000000     1.000000
            PR.5            PR1.1   1     1.000000     1.100000
            PR.5            PR1.2   1     1.000000     1.200000
            PR.5            PR1.3   1     1.000000     1.300000
            PR.5            PR1.4   1     1.000000     1.400000
            PR.5            PR1.5   1     1.000000     1.500000
            PR.5            PR1.6   1     1.000000     1.600000
            PR.5            PR1.7   1     1.000000     1.700000
            PR.5            PR1.8   1     1.000000     1.800000
            PR.5            PR1.9   1     1.000000     1.900000
            PR.5            PR2.0   1     1.000000     2.000000
            PR.5             PN.1   1     1.000000     0.500000
            PR.5             PN.2   1     1.000000     0.500000
            PR.5             PN.3   1     1.000000     0.500000
            PR.5             PN.4   1     1.000000     0.500000
            PR.5             PN.5   1     1.000000     0.500000
            PR.5             PN.6   1     1.000000     0.600000
            PR.5             PN.7   1     1.000000     0.700000
            PR.5             PN.8   1     1.000000     0.800000
            PR.5             PN.9   1     1.000000     0.900000
            PR.5            PN1.0   1     1.000000     1.000000
            PR.5            PN1.1   1     1.000000     1.100000
            PR.5            PN1.2   1     1.000000     1.200000
            PR.5            PN1.3   1     1.000000     1.300000
            PR.5            PN1.4   1     1.000000     1.400000
            PR.5            PN1.5   1     1.000000     1.500000
            PR.5            PN1.6   1     1.000000     1.600000
            PR.5            PN1.7   1     1.000000     1.700000
            PR.5            PN1.8   1     1.000000     1.800000
            PR.5            PN1.9   1     1.000000     1.900000
            PR.5            PN2.0   1     1.000000     2.000000
            PR.5            PC4.0   1     1.000000     4.000000
            PR.5            PC4.1   1     1.000000     4.100000
            PR.5            PC4.2   1     1.000000     4.200000
            PR.5            PC4.3   1     1.000000     4.300000
            PR.5            PC4.4   1     1.000000     4.400000
            PR.5            PC4.5   1     1.000000     4.500000
            PR.5            PC4.6   1     1.000000     4.600000
            PR.5            PC4.7   1     1.000000     4.700000
            PR.5            PC4.8   1     1.000000     4.800000
            PR.5            PC4.9   1     1.000000     4.900000
            PR.5            PC5.0   1     1.000000     5.000000
            PR.6             PR.6   1     1.000000     0.600000
            PR.6             PR.7   1     1.000000     0.700000
            PR.6             PR.8   1     1.000000     0.800000
            PR.6             PR.9   1     1.000000     0.900000
            PR.6            PR1.0   1     1.000000     1.000000
            PR.6            PR1.1   1     1.000000     1.100000
            PR.6            PR1.2   1     1.000000     1.200000
            PR.6            PR1.3   1     1.000000     1.300000
            PR.6            PR1.4   1     1.000000     1.400000
            PR.6            PR1.5   1     1.000000     1.500000
            PR.6            PR1.6   1     1.000000     1.600000
            PR.6            PR1.7   1     1.000000     1.700000
            PR.6            PR1.8   1     1.000000     1.800000
            PR.6            PR1.9   1     1.000000     1.900000
            PR.6            PR2.0   1     1.000000     2.000000
            PR.6             PN.1   1     1.000000     0.600000
            PR.6             PN.2   1     1.000000     0.600000
            PR.6             PN.3   1     1.000000     0.600000
            PR.6             PN.4   1     1.000000     0.600000
            PR.6             PN.5   1     1.000000     0.600000
            PR.6             PN.6   1     1.000000     0.600000
            PR.6             PN.7   1     1.000000     0.700000
            PR.6             PN.8   1     1.000000     0.800000
            PR.6             PN.9   1     1.000000     0.900000
            PR.6            PN1.0   1     1.000000     1.000000
            PR.6            PN1.1   1     1.000000     1.100000
            PR.6            PN1.2   1     1.000000     1.200000
            PR.6            PN1.3   1     1.000000     1.300000
            PR.6            PN1.4   1     1.000000     1.400000
            PR.6            PN1.5   1     1.000000     1.500000
            PR.6            PN1.6   1     1.000000     1.600000
            PR.6            PN1.7   1     1.000000     1.700000
            PR.6            PN1.8   1     1.000000     1.800000
            PR.6            PN1.9   1     1.000000     1.900000
            PR.6            PN2.0   1     1.000000     2.000000
            PR.6            PC4.0   1     1.000000     4.000000
            PR.6            PC4.1   1     1.000000     4.100000
            PR.6            PC4.2   1     1.000000     4.200000
            PR.6            PC4.3   1     1.000000     4.300000
            PR.6            PC4.4   1     1.000000     4.400000
            PR.6            PC4.5   1     1.000000     4.500000
            PR.6            PC4.6   1     1.000000     4.600000
            PR.6            PC4.7   1     1.000000     4.700000
            PR.6            PC4.8   1     1.000000     4.800000
            PR.6            PC4.9   1     1.000000     4.900000
            PR.6            PC5.0   1     1.000000     5.000000
            PR.7             PR.7   1     1.000000     0.700000
            PR.7             PR.8   1     1.000000     0.800000
            PR.7             PR.9   1     1.000000     0.900000
            PR.7            PR1.0   1     1.000000     1.000000
            PR.7            PR1.1   1     1.000000     1.100000
            PR.7            PR1.2   1     1.000000     1.200000
            PR.7            PR1.3   1     1.000000     1.300000
            PR.7            PR1.4   1     1.000000     1.400000
            PR.7            PR1.5   1     1.000000     1.500000
            PR.7            PR1.6   1     1.000000     1.600000
            PR.7            PR1.7   1     1.000000     1.700000
            PR.7            PR1.8   1     1.000000     1.800000
            PR.7            PR1.9   1     1.000000     1.900000
            PR.7            PR2.0   1     1.000000     2.000000
            PR.7             PN.1   1     1.000000     0.700000
            PR.7             PN.2   1     1.000000     0.700000
            PR.7             PN.3   1     1.000000     0.700000
            PR.7             PN.4   1     1.000000     0.700000
            PR.7             PN.5   1     1.000000     0.700000
            PR.7             PN.6   1     1.000000     0.700000
            PR.7             PN.7   1     1.000000     0.700000
            PR.7             PN.8   1     1.000000     0.800000
            PR.7             PN.9   1     1.000000     0.900000
            PR.7            PN1.0   1     1.000000     1.000000
            PR.7            PN1.1   1     1.000000     1.100000
            PR.7            PN1.2   1     1.000000     1.200000
            PR.7            PN1.3   1     1.000000     1.300000
            PR.7            PN1.4   1     1.000000     1.400000
            PR.7            PN1.5   1     1.000000     1.500000
            PR.7            PN1.6   1     1.000000     1.600000
            PR.7            PN1.7   1     1.000000     1.700000
            PR.7            PN1.8   1     1.000000     1.800000
            PR.7            PN1.9   1     1.000000     1.900000
            PR.7            PN2.0   1     1.000000     2.000000
            PR.7            PC4.0   1     1.000000     4.000000
            PR.7            PC4.1   1     1.000000     4.100000
            PR.7            PC4.2   1     1.000000     4.200000
            PR.7            PC4.3   1     1.000000     4.300000
            PR.7            PC4.4   1     1.000000     4.400000
            PR.7            PC4.5   1     1.000000     4.500000
            PR.7            PC4.6   1     1.000000     4.600000
            PR.7            PC4.7   1     1.000000     4.700000
            PR.7            PC4.8   1     1.000000     4.800000
            PR.7            PC4.9   1     1.000000     4.900000
            PR.7            PC5.0   1     1.000000     5.000000
            PR.8             PR.8   1     1.000000     0.800000
            PR.8             PR.9   1     1.000000     0.900000
            PR.8            PR1.0   1     1.000000     1.000000
            PR.8            PR1.1   1     1.000000     1.100000
            PR.8            PR1.2   1     1.000000     1.200000
            PR.8            PR1.3   1     1.000000     1.300000
            PR.8            PR1.4   1     1.000000     1.400000
            PR.8            PR1.5   1     1.000000     1.500000
            PR.8            PR1.6   1     1.000000     1.600000
            PR.8            PR1.7   1     1.000000     1.700000
            PR.8            PR1.8   1     1.000000     1.800000
            PR.8            PR1.9   1     1.000000     1.900000
            PR.8            PR2.0   1     1.000000     2.000000
            PR.8             PN.1   1     1.000000     0.800000
            PR.8             PN.2   1     1.000000     0.800000
            PR.8             PN.3   1     1.000000     0.800000
            PR.8             PN.4   1     1.000000     0.800000
            PR.8             PN.5   1     1.000000     0.800000
            PR.8             PN.6   1     1.000000     0.800000
            PR.8             PN.7   1     1.000000     0.800000
            PR.8             PN.8   1     1.000000     0.800000
            PR.8             PN.9   1     1.000000     0.900000
            PR.8            PN1.0   1     1.000000     1.000000
            PR.8            PN1.1   1     1.000000     1.100000
            PR.8            PN1.2   1     1.000000     1.200000
            PR.8            PN1.3   1     1.000000     1.300000
            PR.8            PN1.4   1     1.000000     1.400000
            PR.8            PN1.5   1     1.000000     1.500000
            PR.8            PN1.6   1     1.000000     1.600000
            PR.8            PN1.7   1     1.000000     1.700000
            PR.8            PN1.8   1     1.000000     1.800000
            PR.8            PN1.9   1     1.000000     1.900000
            PR.8            PN2.0   1     1.000000     2.000000
            PR.8            PC4.0   1     1.000000     4.000000
            PR.8            PC4.1   1     1.000000     4.100000
            PR.8            PC4.2   1     1.000000     4.200000
            PR.8            PC4.3   1     1.000000     4.300000
            PR.8            PC4.4   1     1.000000     4.400000
            PR.8            PC4.5   1     1.000000     4.500000
            PR.8            PC4.6   1     1.000000     4.600000
            PR.8            PC4.7   1     1.000000     4.700000
            PR.8            PC4.8   1     1.000000     4.800000
            PR.8            PC4.9   1     1.000000     4.900000
            PR.8            PC5.0   1     1.000000     5.000000
            PR.9             PR.9   1     1.000000     0.900000
            PR.9            PR1.0   1     1.000000     1.000000
            PR.9            PR1.1   1     1.000000     1.100000
            PR.9            PR1.2   1     1.000000     1.200000
            PR.9            PR1.3   1     1.000000     1.300000
            PR.9            PR1.4   1     1.000000     1.400000
            PR.9            PR1.5   1     1.000000     1.500000
            PR.9            PR1.6   1     1.000000     1.600000
            PR.9            PR1.7   1     1.000000     1.700000
            PR.9            PR1.8   1     1.000000     1.800000
            PR.9            PR1.9   1     1.000000     1.900000
            PR.9            PR2.0   1     1.000000     2.000000
            PR.9             PN.1   1     1.000000     0.900000
            PR.9             PN.2   1     1.000000     0.900000
            PR.9             PN.3   1     1.000000     0.900000
            PR.9             PN.4   1     1.000000     0.900000
            PR.9             PN.5   1     1.000000     0.900000
            PR.9             PN.6   1     1.000000     0.900000
            PR.9             PN.7   1     1.000000     0.900000
            PR.9             PN.8   1     1.000000     0.900000
            PR.9             PN.9   1     1.000000     0.900000
            PR.9            PN1.0   1     1.000000     1.000000
            PR.9            PN1.1   1     1.000000     1.100000
            PR.9            PN1.2   1     1.000000     1.200000
            PR.9            PN1.3   1     1.000000     1.300000
            PR.9            PN1.4   1     1.000000     1.400000
            PR.9            PN1.5   1     1.000000     1.500000
            PR.9            PN1.6   1     1.000000     1.600000
            PR.9            PN1.7   1     1.000000     1.700000
            PR.9            PN1.8   1     1.000000     1.800000
            PR.9            PN1.9   1     1.000000     1.900000
            PR.9            PN2.0   1     1.000000     2.000000
            PR.9            PC4.0   1     1.000000     4.000000
            PR.9            PC4.1   1     1.000000     4.100000
            PR.9            PC4.2   1     1.000000     4.200000
            PR.9            PC4.3   1     1.000000     4.300000
            PR.9            PC4.4   1     1.000000     4.400000
            PR.9            PC4.5   1     1.000000     4.500000
            PR.9            PC4.6   1     1.000000     4.600000
            PR.9            PC4.7   1     1.000000     4.700000
            PR.9            PC4.8   1     1.000000     4.800000
            PR.9            PC4.9   1     1.000000     4.900000
            PR.9            PC5.0   1     1.000000     5.000000
           PR1.0            PR1.0   1     1.000000     1.000000
           PR1.0            PR1.1   1     1.000000     1.100000
           PR1.0            PR1.2   1     1.000000     1.200000
           PR1.0            PR1.3   1     1.000000     1.300000
           PR1.0            PR1.4   1     1.000000     1.400000
           PR1.0            PR1.5   1     1.000000     1.500000
           PR1.0            PR1.6   1     1.000000     1.600000
           PR1.0            PR1.7   1     1.000000     1.700000
           PR1.0            PR1.8   1     1.000000     1.800000
           PR1.0            PR1.9   1     1.000000     1.900000
           PR1.0            PR2.0   1     1.000000     2.000000
           PR1.0             PN.1   1     1.000000     1.000000
           PR1.0             PN.2   1     1.000000     1.000000
           PR1.0             PN.3   1     1.000000     1.000000
           PR1.0             PN.4   1     1.000000     1.000000
           PR1.0             PN.5   1     1.000000     1.000000
           PR1.0             PN.6   1     1.000000     1.000000
           PR1.0             PN.7   1     1.000000     1.000000
           PR1.0             PN.8   1     1.000000     1.000000
           PR1.0             PN.9   1     1.000000     1.000000
           PR1.0            PN1.0   1     1.000000     1.000000
           PR1.0            PN1.1   1     1.000000     1.100000
           PR1.0            PN1.2   1     1.000000     1.200000
           PR1.0            PN1.3   1     1.000000     1.300000
           PR1.0            PN1.4   1     1.000000     1.400000
           PR1.0            PN1.5   1     1.000000     1.500000
           PR1.0            PN1.6   1     1.000000     1.600000
           PR1.0            PN1.7   1     1.000000     1.700000
           PR1.0            PN1.8   1     1.000000     1.800000
           PR1.0            PN1.9   1     1.000000     1.900000
           PR1.0            PN2.0   1     1.000000     2.000000
           PR1.0            PC4.0   1     1.000000     4.000000
           PR1.0            PC4.1   1     1.000000     4.100000
           PR1.0            PC4.2   1     1.000000     4.200000
           PR1.0            PC4.3   1     1.000000     4.300000
           PR1.0            PC4.4   1     1.000000     4.400000
           PR1.0            PC4.5   1     1.000000     4.500000
           PR1.0            PC4.6   1     1.000000     4.600000
           PR1.0            PC4.7   1     1.000000     4.700000
           PR1.0            PC4.8   1     1.000000     4.800000
           PR1.0            PC4.9   1     1.000000     4.900000
           PR1.0            PC5.0   1     1.000000     5.000000
           PR1.1            PR1.1   1     1.000000     1.100000
           PR1.1            PR1.2   1     1.000000     1.200000
           PR1.1            PR1.3   1     1.000000     1.300000
           PR1.1            PR1.4   1     1.000000     1.400000
           PR1.1            PR1.5   1     1.000000     1.500000
           PR1.1            PR1.6   1     1.000000     1.600000
           PR1.1            PR1.7   1     1.000000     1.700000
           PR1.1            PR1.8   1     1.000000     1.800000
           PR1.1            PR1.9   1     1.000000     1.900000
           PR1.1            PR2.0   1     1.000000     2.000000
           PR1.1             PN.1   1     1.000000     1.100000
           PR1.1             PN.2   1     1.000000     1.100000
           PR1.1             PN.3   1     1.000000     1.100000
           PR1.1             PN.4   1     1.000000     1.100000
           PR1.1             PN.5   1     1.000000     1.100000
           PR1.1             PN.6   1     1.000000     1.100000
           PR1.1             PN.7   1     1.000000     1.100000
           PR1.1             PN.8   1     1.000000     1.100000
           PR1.1             PN.9   1     1.000000     1.100000
           PR1.1            PN1.0   1     1.000000     1.100000
           PR1.1            PN1.1   1     1.000000     1.100000
           PR1.1            PN1.2   1     1.000000     1.200000
           PR1.1            PN1.3   1     1.000000     1.300000
           PR1.1            PN1.4   1     1.000000     1.400000
           PR1.1            PN1.5   1     1.000000     1.500000
           PR1.1            PN1.6   1     1.000000     1.600000
           PR1.1            PN1.7   1     1.000000     1.700000
           PR1.1            PN1.8   1     1.000000     1.800000
           PR1.1            PN1.9   1     1.000000     1.900000
           PR1.1            PN2.0   1     1.000000     2.000000
           PR1.1            PC4.0   1     1.000000     4.000000
           PR1.1            PC4.1   1     1.000000     4.100000
           PR1.1            PC4.2   1     1.000000     4.200000
           PR1.1            PC4.3   1     1.000000     4.300000
           PR1.1            PC4.4   1     1.000000     4.400000
           PR1.1            PC4.5   1     1.000000     4.500000
           PR1.1            PC4.6   1     1.000000     4.600000
           PR1.1            PC4.7   1     1.000000     4.700000
           PR1.1            PC4.8   1     1.000000     4.800000
           PR1.1            PC4.9   1     1.000000     4.900000
           PR1.1            PC5.0   1     1.000000     5.000000
           PR1.2            PR1.2   1     1.000000     1.200000
           PR1.2            PR1.3   1     1.000000     1.300000
           PR1.2            PR1.4   1     1.000000     1.400000
           PR1.2            PR1.5   1     1.000000     1.500000
           PR1.2            PR1.6   1     1.000000     1.600000
           PR1.2            PR1.7   1     1.000000     1.700000
           PR1.2            PR1.8   1     1.000000     1.800000
           PR1.2            PR1.9   1     1.000000     1.900000
           PR1.2            PR2.0   1     1.000000     2.000000
           PR1.2             PN.1   1     1.000000     1.200000
           PR1.2             PN.2   1     1.000000     1.200000
           PR1.2             PN.3   1     1.000000     1.200000
           PR1.2             PN.4   1     1.000000     1.200000
           PR1.2             PN.5   1     1.000000     1.200000
           PR1.2             PN.6   1     1.000000     1.200000
           PR1.2             PN.7   1     1.000000     1.200000
           PR1.2             PN.8   1     1.000000     1.200000
           PR1.2             PN.9   1     1.000000     1.200000
           PR1.2            PN1.0   1     1.000000     1.200000
           PR1.2            PN1.1   1     1.000000     1.200000
           PR1.2            PN1.2   1     1.000000     1.200000
           PR1.2            PN1.3   1     1.000000     1.300000
           PR1.2            PN1.4   1     1.000000     1.400000
           PR1.2            PN1.5   1     1.000000     1.500000
           PR1.2            PN1.6   1     1.000000     1.600000
           PR1.2            PN1.7   1     1.000000     1.700000
           PR1.2            PN1.8   1     1.000000     1.800000
           PR1.2            PN1.9   1     1.000000     1.900000
           PR1.2            PN2.0   1     1.000000     2.000000
           PR1.2            PC4.0   1     1.000000     4.000000
           PR1.2            PC4.1   1     1.000000     4.100000
           PR1.2            PC4.2   1     1.000000     4.200000
           PR1.2            PC4.3   1     1.000000     4.300000
           PR1.2            PC4.4   1     1.000000     4.400000
           PR1.2            PC4.5   1     1.000000     4.500000
           PR1.2            PC4.6   1     1.000000     4.600000
           PR1.2            PC4.7   1     1.000000     4.700000
           PR1.2            PC4.8   1     1.000000     4.800000
           PR1.2            PC4.9   1     1.000000     4.900000
           PR1.2            PC5.0   1     1.000000     5.000000
           PR1.3            PR1.3   1     1.000000     1.300000
           PR1.3            PR1.4   1     1.000000     1.400000
           PR1.3            PR1.5   1     1.000000     1.500000
           PR1.3            PR1.6   1     1.000000     1.600000
           PR1.3            PR1.7   1     1.000000     1.700000
           PR1.3            PR1.8   1     1.000000     1.800000
           PR1.3            PR1.9   1     1.000000     1.900000
           PR1.3            PR2.0   1     1.000000     2.000000
           PR1.3             PN.1   1     1.000000     1.300000
           PR1.3             PN.2   1     1.000000     1.300000
           PR1.3             PN.3   1     1.000000     1.300000
           PR1.3             PN.4   1     1.000000     1.300000
           PR1.3             PN.5   1     1.000000     1.300000
           PR1.3             PN.6   1     1.000000     1.300000
           PR1.3             PN.7   1     1.000000     1.300000
           PR1.3             PN.8   1     1.000000     1.300000
           PR1.3             PN.9   1     1.000000     1.300000
           PR1.3            PN1.0   1     1.000000     1.300000
           PR1.3            PN1.1   1     1.000000     1.300000
           PR1.3            PN1.2   1     1.000000     1.300000
           PR1.3            PN1.3   1     1.000000     1.300000
           PR1.3            PN1.4   1     1.000000     1.400000
           PR1.3            PN1.5   1     1.000000     1.500000
           PR1.3            PN1.6   1     1.000000     1.600000
           PR1.3            PN1.7   1     1.000000     1.700000
           PR1.3            PN1.8   1     1.000000     1.800000
           PR1.3            PN1.9   1     1.000000     1.900000
           PR1.3            PN2.0   1     1.000000     2.000000
           PR1.3            PC4.0   1     1.000000     4.000000
           PR1.3            PC4.1   1     1.000000     4.100000
           PR1.3            PC4.2   1     1.000000     4.200000
           PR1.3            PC4.3   1     1.000000     4.300000
           PR1.3            PC4.4   1     1.000000     4.400000
           PR1.3            PC4.5   1     1.000000     4.500000
           PR1.3            PC4.6   1     1.000000     4.600000
           PR1.3            PC4.7   1     1.000000     4.700000
           PR1.3            PC4.8   1     1.000000     4.800000
           PR1.3            PC4.9   1     1.000000     4.900000
           PR1.3            PC5.0   1     1.000000     5.000000
           PR1.4            PR1.4   1     1.000000     1.400000
           PR1.4            PR1.5   1     1.000000     1.500000
           PR1.4            PR1.6   1     1.000000     1.600000
           PR1.4            PR1.7   1     1.000000     1.700000
           PR1.4            PR1.8   1     1.000000     1.800000
           PR1.4            PR1.9   1     1.000000     1.900000
           PR1.4            PR2.0   1     1.000000     2.000000
           PR1.4             PN.1   1     1.000000     1.400000
           PR1.4             PN.2   1     1.000000     1.400000
           PR1.4             PN.3   1     1.000000     1.400000
           PR1.4             PN.4   1     1.000000     1.400000
           PR1.4             PN.5   1     1.000000     1.400000
           PR1.4             PN.6   1     1.000000     1.400000
           PR1.4             PN.7   1     1.000000     1.400000
           PR1.4             PN.8   1     1.000000     1.400000
           PR1.4             PN.9   1     1.000000     1.400000
           PR1.4            PN1.0   1     1.000000     1.400000
           PR1.4            PN1.1   1     1.000000     1.400000
           PR1.4            PN1.2   1     1.000000     1.400000
           PR1.4            PN1.3   1     1.000000     1.400000
           PR1.4            PN1.4   1     1.000000     1.400000
           PR1.4            PN1.5   1     1.000000     1.500000
           PR1.4            PN1.6   1     1.000000     1.600000
           PR1.4            PN1.7   1     1.000000     1.700000
           PR1.4            PN1.8   1     1.000000     1.800000
           PR1.4            PN1.9   1     1.000000     1.900000
           PR1.4            PN2.0   1     1.000000     2.000000
           PR1.4            PC4.0   1     1.000000     4.000000
           PR1.4            PC4.1   1     1.000000     4.100000
           PR1.4            PC4.2   1     1.000000     4.200000
           PR1.4            PC4.3   1     1.000000     4.300000
           PR1.4            PC4.4   1     1.000000     4.400000
           PR1.4            PC4.5   1     1.000000     4.500000
           PR1.4            PC4.6   1     1.000000     4.600000
           PR1.4            PC4.7   1     1.000000     4.700000
           PR1.4            PC4.8   1     1.000000     4.800000
           PR1.4            PC4.9   1     1.000000     4.900000
           PR1.4            PC5.0   1     1.000000     5.000000
           PR1.5            PR1.5   1     1.000000     1.500000
           PR1.5            PR1.6   1     1.000000     1.600000
           PR1.5            PR1.7   1     1.000000     1.700000
           PR1.5            PR1.8   1     1.000000     1.800000
           PR1.5            PR1.9   1     1.000000     1.900000
           PR1.5            PR2.0   1     1.000000     2.000000
           PR1.5             PN.1   1     1.000000     1.500000
           PR1.5             PN.2   1     1.000000     1.500000
           PR1.5             PN.3   1     1.000000     1.500000
           PR1.5             PN.4   1     1.000000     1.500000
           PR1.5             PN.5   1     1.000000     1.500000
           PR1.5             PN.6   1     1.000000     1.500000
           PR1.5             PN.7   1     1.000000     1.500000
           PR1.5             PN.8   1     1.000000     1.500000
           PR1.5             PN.9   1     1.000000     1.500000
           PR1.5            PN1.0   1     1.000000     1.500000
           PR1.5            PN1.1   1     1.000000     1.500000
           PR1.5            PN1.2   1     1.000000     1.500000
           PR1.5            PN1.3   1     1.000000     1.500000
           PR1.5            PN1.4   1     1.000000     1.500000
           PR1.5            PN1.5   1     1.000000     1.500000
           PR1.5            PN1.6   1     1.000000     1.600000
           PR1.5            PN1.7   1     1.000000     1.700000
           PR1.5            PN1.8   1     1.000000     1.800000
           PR1.5            PN1.9   1     1.000000     1.900000
           PR1.5            PN2.0   1     1.000000     2.000000
           PR1.5            PC4.0   1     1.000000     4.000000
           PR1.5            PC4.1   1     1.000000     4.100000
           PR1.5            PC4.2   1     1.000000     4.200000
           PR1.5            PC4.3   1     1.000000     4.300000
           PR1.5            PC4.4   1     1.000000     4.400000
           PR1.5            PC4.5   1     1.000000     4.500000
           PR1.5            PC4.6   1     1.000000     4.600000
           PR1.5            PC4.7   1     1.000000     4.700000
           PR1.5            PC4.8   1     1.000000     4.800000
           PR1.5            PC4.9   1     1.000000     4.900000
           PR1.5            PC5.0   1     1.000000     5.000000
           PR1.6            PR1.6   1     1.000000     1.600000
           PR1.6            PR1.7   1     1.000000     1.700000
           PR1.6            PR1.8   1     1.000000     1.800000
           PR1.6            PR1.9   1     1.000000     1.900000
           PR1.6            PR2.0   1     1.000000     2.000000
           PR1.6             PN.1   1     1.000000     1.600000
           PR1.6             PN.2   1     1.000000     1.600000
           PR1.6             PN.3   1     1.000000     1.600000
           PR1.6             PN.4   1     1.000000     1.600000
           PR1.6             PN.5   1     1.000000     1.600000
           PR1.6             PN.6   1     1.000000     1.600000
           PR1.6             PN.7   1     1.000000     1.600000
           PR1.6             PN.8   1     1.000000     1.600000
           PR1.6             PN.9   1     1.000000     1.600000
           PR1.6            PN1.0   1     1.000000     1.600000
           PR1.6            PN1.1   1     1.000000     1.600000
           PR1.6            PN1.2   1     1.000000     1.600000
           PR1.6            PN1.3   1     1.000000     1.600000
           PR1.6            PN1.4   1     1.000000     1.600000
           PR1.6            PN1.5   1     1.000000     1.600000
           PR1.6            PN1.6   1     1.000000     1.600000
           PR1.6            PN1.7   1     1.000000     1.700000
           PR1.6            PN1.8   1     1.000000     1.800000
           PR1.6            PN1.9   1     1.000000     1.900000
           PR1.6            PN2.0   1     1.000000     2.000000
           PR1.6            PC4.0   1     1.000000     4.000000
           PR1.6            PC4.1   1     1.000000     4.100000
           PR1.6            PC4.2   1     1.000000     4.200000
           PR1.6            PC4.3   1     1.000000     4.300000
           PR1.6            PC4.4   1     1.000000     4.400000
           PR1.6            PC4.5   1     1.000000     4.500000
           PR1.6            PC4.6   1     1.000000     4.600000
           PR1.6            PC4.7   1     1.000000     4.700000
           PR1.6            PC4.8   1     1.000000     4.800000
           PR1.6            PC4.9   1     1.000000     4.900000
           PR1.6            PC5.0   1     1.000000     5.000000
           PR1.7            PR1.7   1     1.000000     1.700000
           PR1.7            PR1.8   1     1.000000     1.800000
           PR1.7            PR1.9   1     1.000000     1.900000
           PR1.7            PR2.0   1     1.000000     2.000000
           PR1.7             PN.1   1     1.000000     1.700000
           PR1.7             PN.2   1     1.000000     1.700000
           PR1.7             PN.3   1     1.000000     1.700000
           PR1.7             PN.4   1     1.000000     1.700000
           PR1.7             PN.5   1     1.000000     1.700000
           PR1.7             PN.6   1     1.000000     1.700000
           PR1.7             PN.7   1     1.000000     1.700000
           PR1.7             PN.8   1     1.000000     1.700000
           PR1.7             PN.9   1     1.000000     1.700000
           PR1.7            PN1.0   1     1.000000     1.700000
           PR1.7            PN1.1   1     1.000000     1.700000
           PR1.7            PN1.2   1     1.000000     1.700000
           PR1.7            PN1.3   1     1.000000     1.700000
           PR1.7            PN1.4   1     1.000000     1.700000
           PR1.7            PN1.5   1     1.000000     1.700000
           PR1.7            PN1.6   1     1.000000     1.700000
           PR1.7            PN1.7   1     1.000000     1.700000
           PR1.7            PN1.8   1     1.000000     1.800000
           PR1.7            PN1.9   1     1.000000     1.900000
           PR1.7            PN2.0   1     1.000000     2.000000
           PR1.7            PC4.0   1     1.000000     4.000000
           PR1.7            PC4.1   1     1.000000     4.100000
           PR1.7            PC4.2   1     1.000000     4.200000
           PR1.7            PC4.3   1     1.000000     4.300000
           PR1.7            PC4.4   1     1.000000     4.400000
           PR1.7            PC4.5   1     1.000000     4.500000
           PR1.7            PC4.6   1     1.000000     4.600000
           PR1.7            PC4.7   1     1.000000     4.700000
           PR1.7            PC4.8   1     1.000000     4.800000
           PR1.7            PC4.9   1     1.000000     4.900000
           PR1.7            PC5.0   1     1.000000     5.000000
           PR1.8            PR1.8   1     1.000000     1.800000
           PR1.8            PR1.9   1     1.000000     1.900000
           PR1.8            PR2.0   1     1.000000     2.000000
           PR1.8             PN.1   1     1.000000     1.800000
           PR1.8             PN.2   1     1.000000     1.800000
           PR1.8             PN.3   1     1.000000     1.800000
           PR1.8             PN.4   1     1.000000     1.800000
           PR1.8             PN.5   1     1.000000     1.800000
           PR1.8             PN.6   1     1.000000     1.800000
           PR1.8             PN.7   1     1.000000     1.800000
           PR1.8             PN.8   1     1.000000     1.800000
           PR1.8             PN.9   1     1.000000     1.800000
           PR1.8            PN1.0   1     1.000000     1.800000
           PR1.8            PN1.1   1     1.000000     1.800000
           PR1.8            PN1.2   1     1.000000     1.800000
           PR1.8            PN1.3   1     1.000000     1.800000
           PR1.8            PN1.4   1     1.000000     1.800000
           PR1.8            PN1.5   1     1.000000     1.800000
           PR1.8            PN1.6   1     1.000000     1.800000
           PR1.8            PN1.7   1     1.000000     1.800000
           PR1.8            PN1.8   1     1.000000     1.800000
           PR1.8            PN1.9   1     1.000000     1.900000
           PR1.8            PN2.0   1     1.000000     2.000000
           PR1.8            PC4.0   1     1.000000     4.000000
           PR1.8            PC4.1   1     1.000000     4.100000
           PR1.8            PC4.2   1     1.000000     4.200000
           PR1.8            PC4.3   1     1.000000     4.300000
           PR1.8            PC4.4   1     1.000000     4.400000
           PR1.8            PC4.5   1     1.000000     4.500000
           PR1.8            PC4.6   1     1.000000     4.600000
           PR1.8            PC4.7   1     1.000000     4.700000
           PR1.8            PC4.8   1     1.000000     4.800000
           PR1.8            PC4.9   1     1.000000     4.900000
           PR1.8            PC5.0   1     1.000000     5.000000
           PR1.9            PR1.9   1     1.000000     1.900000
           PR1.9            PR2.0   1     1.000000     2.000000
           PR1.9             PN.1   1     1.000000     1.900000
           PR1.9             PN.2   1     1.000000     1.900000
           PR1.9             PN.3   1     1.000000     1.900000
           PR1.9             PN.4   1     1.000000     1.900000
           PR1.9             PN.5   1     1.000000     1.900000
           PR1.9             PN.6   1     1.000000     1.900000
           PR1.9             PN.7   1     1.000000     1.900000
           PR1.9             PN.8   1     1.000000     1.900000
           PR1.9             PN.9   1     1.000000     1.900000
           PR1.9            PN1.0   1     1.000000     1.900000
           PR1.9            PN1.1   1     1.000000     1.900000
           PR1.9            PN1.2   1     1.000000     1.900000
           PR1.9            PN1.3   1     1.000000     1.900000
           PR1.9            PN1.4   1     1.000000     1.900000
           PR1.9            PN1.5   1     1.000000     1.900000
           PR1.9            PN1.6   1     1.000000     1.900000
           PR1.9            PN1.7   1     1.000000     1.900000
           PR1.9            PN1.8   1     1.000000     1.900000
           PR1.9            PN1.9   1     1.000000     1.900000
           PR1.9            PN2.0   1     1.000000     2.000000
           PR1.9            PC4.0   1     1.000000     4.000000
           PR1.9            PC4.1   1     1.000000     4.100000
           PR1.9            PC4.2   1     1.000000     4.200000
           PR1.9            PC4.3   1     1.000000     4.300000
           PR1.9            PC4.4   1     1.000000     4.400000
           PR1.9            PC4.5   1     1.000000     4.500000
           PR1.9            PC4.6   1     1.000000     4.600000
           PR1.9            PC4.7   1     1.000000     4.700000
           PR1.9            PC4.8   1     1.000000     4.800000
           PR1.9            PC4.9   1     1.000000     4.900000
           PR1.9            PC5.0   1     1.000000     5.000000
           PR2.0            PR2.0   1     1.000000     2.000000
           PR2.0             PN.1   1     1.000000     2.000000
           PR2.0             PN.2   1     1.000000     2.000000
           PR2.0             PN.3   1     1.000000     2.000000
           PR2.0             PN.4   1     1.000000     2.000000
           PR2.0             PN.5   1     1.000000     2.000000
           PR2.0             PN.6   1     1.000000     2.000000
           PR2.0             PN.7   1     1.000000     2.000000
           PR2.0             PN.8   1     1.000000     2.000000
           PR2.0             PN.9   1     1.000000     2.000000
           PR2.0            PN1.0   1     1.000000     2.000000
           PR2.0            PN1.1   1     1.000000     2.000000
           PR2.0            PN1.2   1     1.000000     2.000000
           PR2.0            PN1.3   1     1.000000     2.000000
           PR2.0            PN1.4   1     1.000000     2.000000
           PR2.0            PN1.5   1     1.000000     2.000000
           PR2.0            PN1.6   1     1.000000     2.000000
           PR2.0            PN1.7   1     1.000000     2.000000
           PR2.0            PN1.8   1     1.000000     2.000000
           PR2.0            PN1.9   1     1.000000     2.000000
           PR2.0            PN2.0   1     1.000000     2.000000
           PR2.0            PC4.0   1     1.000000     4.000000
           PR2.0            PC4.1   1     1.000000     4.100000
           PR2.0            PC4.2   1     1.000000     4.200000
           PR2.0            PC4.3   1     1.000000     4.300000
           PR2.0            PC4.4   1     1.000000     4.400000
           PR2.0            PC4.5   1     1.000000     4.500000
           PR2.0            PC4.6   1     1.000000     4.600000
           PR2.0            PC4.7   1     1.000000     4.700000
           PR2.0            PC4.8   1     1.000000     4.800000
           PR2.0            PC4.9   1     1.000000     4.900000
           PR2.0            PC5.0   1     1.000000     5.000000
            PN.1             PN.1   1     1.000000     0.100000
            PN.1             PN.2   1     1.000000     0.200000
            PN.1             PN.3   1     1.000000     0.300000
            PN.1             PN.4   1     1.000000     0.400000
            PN.1             PN.5   1     1.000000     0.500000
            PN.1             PN.6   1     1.000000     0.600000
            PN.1             PN.7   1     1.000000     0.700000
            PN.1             PN.8   1     1.000000     0.800000
            PN.1             PN.9   1     1.000000     0.900000
            PN.1            PN1.0   1     1.000000     1.000000
            PN.1            PN1.1   1     1.000000     1.100000
            PN.1            PN1.2   1     1.000000     1.200000
            PN.1            PN1.3   1     1.000000     1.300000
            PN.1            PN1.4   1     1.000000     1.400000
            PN.1            PN1.5   1     1.000000     1.500000
            PN.1            PN1.6   1     1.000000     1.600000
            PN.1            PN1.7   1     1.000000     1.700000
            PN.1            PN1.8   1     1.000000     1.800000
            PN.1            PN1.9   1     1.000000     1.900000
            PN.1            PN2.0   1     1.000000     2.000000
            PN.1            PC4.0   1     1.000000     4.000000
            PN.1            PC4.1   1     1.000000     4.100000
            PN.1            PC4.2   1     1.000000     4.200000
            PN.1            PC4.3   1     1.000000     4.300000
            PN.1            PC4.4   1     1.000000     4.400000
            PN.1            PC4.5   1     1.000000     4.500000
            PN.1            PC4.6   1     1.000000     4.600000
            PN.1            PC4.7   1     1.000000     4.700000
            PN.1            PC4.8   1     1.000000     4.800000
            PN.1            PC4.9   1     1.000000     4.900000
            PN.1            PC5.0   1     1.000000     5.000000
            PN.2             PN.2   1     1.000000     0.200000
            PN.2             PN.3   1     1.000000     0.300000
            PN.2             PN.4   1     1.000000     0.400000
            PN.2             PN.5   1     1.000000     0.500000
            PN.2             PN.6   1     1.000000     0.600000
            PN.2             PN.7   1     1.000000     0.700000
            PN.2             PN.8   1     1.000000     0.800000
            PN.2             PN.9   1     1.000000     0.900000
            PN.2            PN1.0   1     1.000000     1.000000
            PN.2            PN1.1   1     1.000000     1.100000
            PN.2            PN1.2   1     1.000000     1.200000
            PN.2            PN1.3   1     1.000000     1.300000
            PN.2            PN1.4   1     1.000000     1.400000
            PN.2            PN1.5   1     1.000000     1.500000
            PN.2            PN1.6   1     1.000000     1.600000
            PN.2            PN1.7   1     1.000000     1.700000
            PN.2            PN1.8   1     1.000000     1.800000
            PN.2            PN1.9   1     1.000000     1.900000
            PN.2            PN2.0   1     1.000000     2.000000
            PN.2            PC4.0   1     1.000000     4.000000
            PN.2            PC4.1   1     1.000000     4.100000
            PN.2            PC4.2   1     1.000000     4.200000
            PN.2            PC4.3   1     1.000000     4.300000
            PN.2            PC4.4   1     1.000000     4.400000
            PN.2            PC4.5   1     1.000000     4.500000
            PN.2            PC4.6   1     1.000000     4.600000
            PN.2            PC4.7   1     1.000000     4.700000
            PN.2            PC4.8   1     1.000000     4.800000
            PN.2            PC4.9   1     1.000000     4.900000
            PN.2            PC5.0   1     1.000000     5.000000
            PN.3             PN.3   1     1.000000     0.300000
            PN.3             PN.4   1     1.000000     0.400000
            PN.3             PN.5   1     1.000000     0.500000
            PN.3             PN.6   1     1.000000     0.600000
            PN.3             PN.7   1     1.000000     0.700000
            PN.3             PN.8   1     1.000000     0.800000
            PN.3             PN.9   1     1.000000     0.900000
            PN.3            PN1.0   1     1.000000     1.000000
            PN.3            PN1.1   1     1.000000     1.100000
            PN.3            PN1.2   1     1.000000     1.200000
            PN.3            PN1.3   1     1.000000     1.300000
            PN.3            PN1.4   1     1.000000     1.400000
            PN.3            PN1.5   1     1.000000     1.500000
            PN.3            PN1.6   1     1.000000     1.600000
            PN.3            PN1.7   1     1.000000     1.700000
            PN.3            PN1.8   1     1.000000     1.800000
            PN.3            PN1.9   1     1.000000     1.900000
            PN.3            PN2.0   1     1.000000     2.000000
            PN.3            PC4.0   1     1.000000     4.000000
            PN.3            PC4.1   1     1.000000     4.100000
            PN.3            PC4.2   1     1.000000     4.200000
            PN.3            PC4.3   1     1.000000     4.300000
            PN.3            PC4.4   1     1.000000     4.400000
            PN.3            PC4.5   1     1.000000     4.500000
            PN.3            PC4.6   1     1.000000     4.600000
            PN.3            PC4.7   1     1.000000     4.700000
            PN.3            PC4.8   1     1.000000     4.800000
            PN.3            PC4.9   1     1.000000     4.900000
            PN.3            PC5.0   1     1.000000     5.000000
            PN.4             PN.4   1     1.000000     0.400000
            PN.4             PN.5   1     1.000000     0.500000
            PN.4             PN.6   1     1.000000     0.600000
            PN.4             PN.7   1     1.000000     0.700000
            PN.4             PN.8   1     1.000000     0.800000
            PN.4             PN.9   1     1.000000     0.900000
            PN.4            PN1.0   1     1.000000     1.000000
            PN.4            PN1.1   1     1.000000     1.100000
            PN.4            PN1.2   1     1.000000     1.200000
            PN.4            PN1.3   1     1.000000     1.300000
            PN.4            PN1.4   1     1.000000     1.400000
            PN.4            PN1.5   1     1.000000     1.500000
            PN.4            PN1.6   1     1.000000     1.600000
            PN.4            PN1.7   1     1.000000     1.700000
            PN.4            PN1.8   1     1.000000     1.800000
            PN.4            PN1.9   1     1.000000     1.900000
            PN.4            PN2.0   1     1.000000     2.000000
            PN.4            PC4.0   1     1.000000     4.000000
            PN.4            PC4.1   1     1.000000     4.100000
            PN.4            PC4.2   1     1.000000     4.200000
            PN.4            PC4.3   1     1.000000     4.300000
            PN.4            PC4.4   1     1.000000     4.400000
            PN.4            PC4.5   1     1.000000     4.500000
            PN.4            PC4.6   1     1.000000     4.600000
            PN.4            PC4.7   1     1.000000     4.700000
            PN.4            PC4.8   1     1.000000     4.800000
            PN.4            PC4.9   1     1.000000     4.900000
            PN.4            PC5.0   1     1.000000     5.000000
            PN.5             PN.5   1     1.000000     0.500000
            PN.5             PN.6   1     1.000000     0.600000
            PN.5             PN.7   1     1.000000     0.700000
            PN.5             PN.8   1     1.000000     0.800000
            PN.5             PN.9   1     1.000000     0.900000
            PN.5            PN1.0   1     1.000000     1.000000
            PN.5            PN1.1   1     1.000000     1.100000
            PN.5            PN1.2   1     1.000000     1.200000
            PN.5            PN1.3   1     1.000000     1.300000
            PN.5            PN1.4   1     1.000000     1.400000
            PN.5            PN1.5   1     1.000000     1.500000
            PN.5            PN1.6   1     1.000000     1.600000
            PN.5            PN1.7   1     1.000000     1.700000
            PN.5            PN1.8   1     1.000000     1.800000
            PN.5            PN1.9   1     1.000000     1.900000
            PN.5            PN2.0   1     1.000000     2.000000
            PN.5            PC4.0   1     1.000000     4.000000
            PN.5            PC4.1   1     1.000000     4.100000
            PN.5            PC4.2   1     1.000000     4.200000
            PN.5            PC4.3   1     1.000000     4.300000
            PN.5            PC4.4   1     1.000000     4.400000
            PN.5            PC4.5   1     1.000000     4.500000
            PN.5            PC4.6   1     1.000000     4.600000
            PN.5            PC4.7   1     1.000000     4.700000
            PN.5            PC4.8   1     1.000000     4.800000
            PN.5            PC4.9   1     1.000000     4.900000
            PN.5            PC5.0   1     1.000000     5.000000
            PN.6             PN.6   1     1.000000     0.600000
            PN.6             PN.7   1     1.000000     0.700000
            PN.6             PN.8   1     1.000000     0.800000
            PN.6             PN.9   1     1.000000     0.900000
            PN.6            PN1.0   1     1.000000     1.000000
            PN.6            PN1.1   1     1.000000     1.100000
            PN.6            PN1.2   1     1.000000     1.200000
            PN.6            PN1.3   1     1.000000     1.300000
            PN.6            PN1.4   1     1.000000     1.400000
            PN.6            PN1.5   1     1.000000     1.500000
            PN.6            PN1.6   1     1.000000     1.600000
            PN.6            PN1.7   1     1.000000     1.700000
            PN.6            PN1.8   1     1.000000     1.800000
            PN.6            PN1.9   1     1.000000     1.900000
            PN.6            PN2.0   1     1.000000     2.000000
            PN.6            PC4.0   1     1.000000     4.000000
            PN.6            PC4.1   1     1.000000     4.100000
            PN.6            PC4.2   1     1.000000     4.200000
            PN.6            PC4.3   1     1.000000     4.300000
            PN.6            PC4.4   1     1.000000     4.400000
            PN.6            PC4.5   1     1.000000     4.500000
            PN.6            PC4.6   1     1.000000     4.600000
            PN.6            PC4.7   1     1.000000     4.700000
            PN.6            PC4.8   1     1.000000     4.800000
            PN.6            PC4.9   1     1.000000     4.900000
            PN.6            PC5.0   1     1.000000     5.000000
            PN.7             PN.7   1     1.000000     0.700000
            PN.7             PN.8   1     1.000000     0.800000
            PN.7             PN.9   1     1.000000     0.900000
            PN.7            PN1.0   1     1.000000     1.000000
            PN.7            PN1.1   1     1.000000     1.100000
            PN.7            PN1.2   1     1.000000     1.200000
            PN.7            PN1.3   1     1.000000     1.300000
            PN.7            PN1.4   1     1.000000     1.400000
            PN.7            PN1.5   1     1.000000     1.500000
            PN.7            PN1.6   1     1.000000     1.600000
            PN.7            PN1.7   1     1.000000     1.700000
            PN.7            PN1.8   1     1.000000     1.800000
            PN.7            PN1.9   1     1.000000     1.900000
            PN.7            PN2.0   1     1.000000     2.000000
            PN.7            PC4.0   1     1.000000     4.000000
            PN.7            PC4.1   1     1.000000     4.100000
            PN.7            PC4.2   1     1.000000     4.200000
            PN.7            PC4.3   1     1.000000     4.300000
            PN.7            PC4.4   1     1.000000     4.400000
            PN.7            PC4.5   1     1.000000     4.500000
            PN.7            PC4.6   1     1.000000     4.600000
            PN.7            PC4.7   1     1.000000     4.700000
            PN.7            PC4.8   1     1.000000     4.800000
            PN.7            PC4.9   1     1.000000     4.900000
            PN.7            PC5.0   1     1.000000     5.000000
            PN.8             PN.8   1     1.000000     0.800000
            PN.8             PN.9   1     1.000000     0.900000
            PN.8            PN1.0   1     1.000000     1.000000
            PN.8            PN1.1   1     1.000000     1.100000
            PN.8            PN1.2   1     1.000000     1.200000
            PN.8            PN1.3   1     1.000000     1.300000
            PN.8            PN1.4   1     1.000000     1.400000
            PN.8            PN1.5   1     1.000000     1.500000
            PN.8            PN1.6   1     1.000000     1.600000
            PN.8            PN1.7   1     1.000000     1.700000
            PN.8            PN1.8   1     1.000000     1.800000
            PN.8            PN1.9   1     1.000000     1.900000
            PN.8            PN2.0   1     1.000000     2.000000
            PN.8            PC4.0   1     1.000000     4.000000
            PN.8            PC4.1   1     1.000000     4.100000
            PN.8            PC4.2   1     1.000000     4.200000
            PN.8            PC4.3   1     1.000000     4.300000
            PN.8            PC4.4   1     1.000000     4.400000
            PN.8            PC4.5   1     1.000000     4.500000
            PN.8            PC4.6   1     1.000000     4.600000
            PN.8            PC4.7   1     1.000000     4.700000
            PN.8            PC4.8   1     1.000000     4.800000
            PN.8            PC4.9   1     1.000000     4.900000
            PN.8            PC5.0   1     1.000000     5.000000
            PN.9             PN.9   1     1.000000     0.900000
            PN.9            PN1.0   1     1.000000     1.000000
            PN.9            PN1.1   1     1.000000     1.100000
            PN.9            PN1.2   1     1.000000     1.200000
            PN.9            PN1.3   1     1.000000     1.300000
            PN.9            PN1.4   1     1.000000     1.400000
            PN.9            PN1.5   1     1.000000     1.500000
            PN.9            PN1.6   1     1.000000     1.600000
            PN.9            PN1.7   1     1.000000     1.700000
            PN.9            PN1.8   1     1.000000     1.800000
            PN.9            PN1.9   1     1.000000     1.900000
            PN.9            PN2.0   1     1.000000     2.000000
            PN.9            PC4.0   1     1.000000     4.000000
            PN.9            PC4.1   1     1.000000     4.100000
            PN.9            PC4.2   1     1.000000     4.200000
            PN.9            PC4.3   1     1.000000     4.300000
            PN.9            PC4.4   1     1.000000     4.400000
            PN.9            PC4.5   1     1.000000     4.500000
            PN.9            PC4.6   1     1.000000     4.600000
            PN.9            PC4.7   1     1.000000     4.700000
            PN.9            PC4.8   1     1.000000     4.800000
            PN.9            PC4.9   1     1.000000     4.900000
            PN.9            PC5.0   1     1.000000     5.000000
           PN1.0            PN1.0   1     1.000000     1.000000
           PN1.0            PN1.1   1     1.000000     1.100000
           PN1.0            PN1.2   1     1.000000     1.200000
           PN1.0            PN1.3   1     1.000000     1.300000
           PN1.0            PN1.4   1     1.000000     1.400000
           PN1.0            PN1.5   1     1.000000     1.500000
           PN1.0            PN1.6   1     1.000000     1.600000
           PN1.0            PN1.7   1     1.000000     1.700000
           PN1.0            PN1.8   1     1.000000     1.800000
           PN1.0            PN1.9   1     1.000000     1.900000
           PN1.0            PN2.0   1     1.000000     2.000000
           PN1.0            PC4.0   1     1.000000     4.000000
           PN1.0            PC4.1   1     1.000000     4.100000
           PN1.0            PC4.2   1     1.000000     4.200000
           PN1.0            PC4.3   1     1.000000     4.300000
           PN1.0            PC4.4   1     1.000000     4.400000
           PN1.0            PC4.5   1     1.000000     4.500000
           PN1.0            PC4.6   1     1.000000     4.600000
           PN1.0            PC4.7   1     1.000000     4.700000
           PN1.0            PC4.8   1     1.000000     4.800000
           PN1.0            PC4.9   1     1.000000     4.900000
           PN1.0            PC5.0   1     1.000000     5.000000
           PN1.1            PN1.1   1     1.000000     1.100000
           PN1.1            PN1.2   1     1.000000     1.200000
           PN1.1            PN1.3   1     1.000000     1.300000
           PN1.1            PN1.4   1     1.000000     1.400000
           PN1.1            PN1.5   1     1.000000     1.500000
           PN1.1            PN1.6   1     1.000000     1.600000
           PN1.1            PN1.7   1     1.000000     1.700000
           PN1.1            PN1.8   1     1.000000     1.800000
           PN1.1            PN1.9   1     1.000000     1.900000
           PN1.1            PN2.0   1     1.000000     2.000000
           PN1.1            PC4.0   1     1.000000     4.000000
           PN1.1            PC4.1   1     1.000000     4.100000
           PN1.1            PC4.2   1     1.000000     4.200000
           PN1.1            PC4.3   1     1.000000     4.300000
           PN1.1            PC4.4   1     1.000000     4.400000
           PN1.1            PC4.5   1     1.000000     4.500000
           PN1.1            PC4.6   1     1.000000     4.600000
           PN1.1            PC4.7   1     1.000000     4.700000
           PN1.1            PC4.8   1     1.000000     4.800000
           PN1.1            PC4.9   1     1.000000     4.900000
           PN1.1            PC5.0   1     1.000000     5.000000
           PN1.2            PN1.2   1     1.000000     1.200000
           PN1.2            PN1.3   1     1.000000     1.300000
           PN1.2            PN1.4   1     1.000000     1.400000
           PN1.2            PN1.5   1     1.000000     1.500000
           PN1.2            PN1.6   1     1.000000     1.600000
           PN1.2            PN1.7   1     1.000000     1.700000
           PN1.2            PN1.8   1     1.000000     1.800000
           PN1.2            PN1.9   1     1.000000     1.900000
           PN1.2            PN2.0   1     1.000000     2.000000
           PN1.2            PC4.0   1     1.000000     4.000000
           PN1.2            PC4.1   1     1.000000     4.100000
           PN1.2            PC4.2   1     1.000000     4.200000
           PN1.2            PC4.3   1     1.000000     4.300000
           PN1.2            PC4.4   1     1.000000     4.400000
           PN1.2            PC4.5   1     1.000000     4.500000
           PN1.2            PC4.6   1     1.000000     4.600000
           PN1.2            PC4.7   1     1.000000     4.700000
           PN1.2            PC4.8   1     1.000000     4.800000
           PN1.2            PC4.9   1     1.000000     4.900000
           PN1.2            PC5.0   1     1.000000     5.000000
           PN1.3            PN1.3   1     1.000000     1.300000
           PN1.3            PN1.4   1     1.000000     1.400000
           PN1.3            PN1.5   1     1.000000     1.500000
           PN1.3            PN1.6   1     1.000000     1.600000
           PN1.3            PN1.7   1     1.000000     1.700000
           PN1.3            PN1.8   1     1.000000     1.800000
           PN1.3            PN1.9   1     1.000000     1.900000
           PN1.3            PN2.0   1     1.000000     2.000000
           PN1.3            PC4.0   1     1.000000     4.000000
           PN1.3            PC4.1   1     1.000000     4.100000
           PN1.3            PC4.2   1     1.000000     4.200000
           PN1.3            PC4.3   1     1.000000     4.300000
           PN1.3            PC4.4   1     1.000000     4.400000
           PN1.3            PC4.5   1     1.000000     4.500000
           PN1.3            PC4.6   1     1.000000     4.600000
           PN1.3            PC4.7   1     1.000000     4.700000
           PN1.3            PC4.8   1     1.000000     4.800000
           PN1.3            PC4.9   1     1.000000     4.900000
           PN1.3            PC5.0   1     1.000000     5.000000
           PN1.4            PN1.4   1     1.000000     1.400000
           PN1.4            PN1.5   1     1.000000     1.500000
           PN1.4            PN1.6   1     1.000000     1.600000
           PN1.4            PN1.7   1     1.000000     1.700000
           PN1.4            PN1.8   1     1.000000     1.800000
           PN1.4            PN1.9   1     1.000000     1.900000
           PN1.4            PN2.0   1     1.000000     2.000000
           PN1.4            PC4.0   1     1.000000     4.000000
           PN1.4            PC4.1   1     1.000000     4.100000
           PN1.4            PC4.2   1     1.000000     4.200000
           PN1.4            PC4.3   1     1.000000     4.300000
           PN1.4            PC4.4   1     1.000000     4.400000
           PN1.4            PC4.5   1     1.000000     4.500000
           PN1.4            PC4.6   1     1.000000     4.600000
           PN1.4            PC4.7   1     1.000000     4.700000
           PN1.4            PC4.8   1     1.000000     4.800000
           PN1.4            PC4.9   1     1.000000     4.900000
           PN1.4            PC5.0   1     1.000000     5.000000
           PN1.5            PN1.5   1     1.000000     1.500000
           PN1.5            PN1.6   1     1.000000     1.600000
           PN1.5            PN1.7   1     1.000000     1.700000
           PN1.5            PN1.8   1     1.000000     1.800000
           PN1.5            PN1.9   1     1.000000     1.900000
           PN1.5            PN2.0   1     1.000000     2.000000
           PN1.5            PC4.0   1     1.000000     4.000000
           PN1.5            PC4.1   1     1.000000     4.100000
           PN1.5            PC4.2   1     1.000000     4.200000
           PN1.5            PC4.3   1     1.000000     4.300000
           PN1.5            PC4.4   1     1.000000     4.400000
           PN1.5            PC4.5   1     1.000000     4.500000
           PN1.5            PC4.6   1     1.000000     4.600000
           PN1.5            PC4.7   1     1.000000     4.700000
           PN1.5            PC4.8   1     1.000000     4.800000
           PN1.5            PC4.9   1     1.000000     4.900000
           PN1.5            PC5.0   1     1.000000     5.000000
           PN1.6            PN1.6   1     1.000000     1.600000
           PN1.6            PN1.7   1     1.000000     1.700000
           PN1.6            PN1.8   1     1.000000     1.800000
           PN1.6            PN1.9   1     1.000000     1.900000
           PN1.6            PN2.0   1     1.000000     2.000000
           PN1.6            PC4.0   1     1.000000     4.000000
           PN1.6            PC4.1   1     1.000000     4.100000
           PN1.6            PC4.2   1     1.000000     4.200000
           PN1.6            PC4.3   1     1.000000     4.300000
           PN1.6            PC4.4   1     1.000000     4.400000
           PN1.6            PC4.5   1     1.000000     4.500000
           PN1.6            PC4.6   1     1.000000     4.600000
           PN1.6            PC4.7   1     1.000000     4.700000
           PN1.6            PC4.8   1     1.000000     4.800000
           PN1.6            PC4.9   1     1.000000     4.900000
           PN1.6            PC5.0   1     1.000000     5.000000
           PN1.7            PN1.7   1     1.000000     1.700000
           PN1.7            PN1.8   1     1.000000     1.800000
           PN1.7            PN1.9   1     1.000000     1.900000
           PN1.7            PN2.0   1     1.000000     2.000000
           PN1.7            PC4.0   1     1.000000     4.000000
           PN1.7            PC4.1   1     1.000000     4.100000
           PN1.7            PC4.2   1     1.000000     4.200000
           PN1.7            PC4.3   1     1.000000     4.300000
           PN1.7            PC4.4   1     1.000000     4.400000
           PN1.7            PC4.5   1     1.000000     4.500000
           PN1.7            PC4.6   1     1.000000     4.600000
           PN1.7            PC4.7   1     1.000000     4.700000
           PN1.7            PC4.8   1     1.000000     4.800000
           PN1.7            PC4.9   1     1.000000     4.900000
           PN1.7            PC5.0   1     1.000000     5.000000
           PN1.8            PN1.8   1     1.000000     1.800000
           PN1.8            PN1.9   1     1.000000     1.900000
           PN1.8            PN2.0   1     1.000000     2.000000
           PN1.8            PC4.0   1     1.000000     4.000000
           PN1.8            PC4.1   1     1.000000     4.100000
           PN1.8            PC4.2   1     1.000000     4.200000
           PN1.8            PC4.3   1     1.000000     4.300000
           PN1.8            PC4.4   1     1.000000     4.400000
           PN1.8            PC4.5   1     1.000000     4.500000
           PN1.8            PC4.6   1     1.000000     4.600000
           PN1.8            PC4.7   1     1.000000     4.700000
           PN1.8            PC4.8   1     1.000000     4.800000
           PN1.8            PC4.9   1     1.000000     4.900000
           PN1.8            PC5.0   1     1.000000     5.000000
           PN1.9            PN1.9   1     1.000000     1.900000
           PN1.9            PN2.0   1     1.000000     2.000000
           PN1.9            PC4.0   1     1.000000     4.000000
           PN1.9            PC4.1   1     1.000000     4.100000
           PN1.9            PC4.2   1     1.000000     4.200000
           PN1.9            PC4.3   1     1.000000     4.300000
           PN1.9            PC4.4   1     1.000000     4.400000
           PN1.9            PC4.5   1     1.000000     4.500000
           PN1.9            PC4.6   1     1.000000     4.600000
           PN1.9            PC4.7   1     1.000000     4.700000
           PN1.9            PC4.8   1     1.000000     4.800000
           PN1.9            PC4.9   1     1.000000     4.900000
           PN1.9            PC5.0   1     1.000000     5.000000
           PN2.0            PN2.0   1     1.000000     2.000000
           PN2.0            PC4.0   1     1.000000     4.000000
           PN2.0            PC4.1   1     1.000000     4.100000
           PN2.0            PC4.2   1     1.000000     4.200000
           PN2.0            PC4.3   1     1.000000     4.300000
           PN2.0            PC4.4   1     1.000000     4.400000
           PN2.0            PC4.5   1     1.000000     4.500000
           PN2.0            PC4.6   1     1.000000     4.600000
           PN2.0            PC4.7   1     1.000000     4.700000
           PN2.0            PC4.8   1     1.000000     4.800000
           PN2.0            PC4.9   1     1.000000     4.900000
           PN2.0            PC5.0   1     1.000000     5.000000
           PC4.0            PC4.0   1     1.000000     4.000000
           PC4.0            PC4.1   1     1.000000     4.050000
           PC4.0            PC4.2   1     1.000000     4.100000
           PC4.0            PC4.3   1     1.000000     4.150000
           PC4.0            PC4.4   1     1.000000     4.200000
           PC4.0            PC4.5   1     1.000000     4.250000
           PC4.0            PC4.6   1     1.000000     4.300000
           PC4.0            PC4.7   1     1.000000     4.350000
           PC4.0            PC4.8   1     1.000000     4.400000
           PC4.0            PC4.9   1     1.000000     4.450000
           PC4.0            PC5.0   1     1.000000     4.500000
           PC4.1            PC4.1   1     1.000000     4.100000
           PC4.1            PC4.2   1     1.000000     4.150000
           PC4.1            PC4.3   1     1.000000     4.200000
           PC4.1            PC4.4   1     1.000000     4.250000
           PC4.1            PC4.5   1     1.000000     4.300000
           PC4.1            PC4.6   1     1.000000     4.350000
           PC4.1            PC4.7   1     1.000000     4.400000
           PC4.1            PC4.8   1     1.000000     4.450000
           PC4.1            PC4.9   1     1.000000     4.500000
           PC4.1            PC5.0   1     1.000000     4.550000
           PC4.2            PC4.2   1     1.000000     4.200000
           PC4.2            PC4.3   1     1.000000     4.250000
           PC4.2            PC4.4   1     1.000000     4.300000
           PC4.2            PC4.5   1     1.000000     4.350000
           PC4.2            PC4.6   1     1.000000     4.400000
           PC4.2            PC4.7   1     1.000000     4.450000
           PC4.2            PC4.8   1     1.000000     4.500000
           PC4.2            PC4.9   1     1.000000     4.550000
           PC4.2            PC5.0   1     1.000000     4.600000
           PC4.3            PC4.3   1     1.000000     4.300000
           PC4.3            PC4.4   1     1.000000     4.350000
           PC4.3            PC4.5   1     1.000000     4.400000
           PC4.3            PC4.6   1     1.000000     4.450000
           PC4.3            PC4.7   1     1.000000     4.500000
           PC4.3            PC4.8   1     1.000000     4.550000
           PC4.3            PC4.9   1     1.000000     4.600000
           PC4.3            PC5.0   1     1.000000     4.650000
           PC4.4            PC4.4   1     1.000000     4.400000
           PC4.4            PC4.5   1     1.000000     4.450000
           PC4.4            PC4.6   1     1.000000     4.500000
           PC4.4            PC4.7   1     1.000000     4.550000
           PC4.4            PC4.8   1     1.000000     4.600000
           PC4.4            PC4.9   1     1.000000     4.650000
           PC4.4            PC5.0   1     1.000000     4.700000
           PC4.5            PC4.5   1     1.000000     4.500000
           PC4.5            PC4.6   1     1.000000     4.550000
           PC4.5            PC4.7   1     1.000000     4.600000
           PC4.5            PC4.8   1     1.000000     4.650000
           PC4.5            PC4.9   1     1.000000     4.700000
           PC4.5            PC5.0   1     1.000000     4.750000
           PC4.6            PC4.6   1     1.000000     4.600000
           PC4.6            PC4.7   1     1.000000     4.650000
           PC4.6            PC4.8   1     1.000000     4.700000
           PC4.6            PC4.9   1     1.000000     4.750000
           PC4.6            PC5.0   1     1.000000     4.800000
           PC4.7            PC4.7   1     1.000000     4.700000
           PC4.7            PC4.8   1     1.000000     4.750000
           PC4.7            PC4.9   1     1.000000     4.800000
           PC4.7            PC5.0   1     1.000000     4.850000
           PC4.8            PC4.8   1     1.000000     4.800000
           PC4.8            PC4.9   1     1.000000     4.850000
           PC4.8            PC5.0   1     1.000000     4.900000
           PC4.9            PC4.9   1     1.000000     4.900000
           PC4.9            PC5.0   1     1.000000     4.950000
           PC5.0            PC5.0   1     1.000000     5.000000
